ITEM: TIMESTEP
10000000
ITEM: NUMBER OF ATOMS
1300
ITEM: BOX BOUNDS pp pp pp
-3.0000000000000000e+01 3.0000000000000000e+01
-3.0000000000000000e+01 3.0000000000000000e+01
-3.0000000000000000e+01 3.0000000000000000e+01
ITEM: ATOMS id type x y z ix iy iz 
867 1 2.35213 -15.8137 -17.8088 0 0 0 
1235 2 -14.2016 -6.98502 -17.8868 0 0 0 
1166 2 0.989944 -4.29316 -17.8 0 0 0 
1086 2 -13.6063 -2.15137 -17.9384 0 0 0 
868 1 1.43235 -15.7031 -17.3729 0 0 0 
869 1 0.811059 -15.0412 -17.0199 0 0 0 
866 1 2.97584 -15.1099 -17.6699 0 0 0 
865 1 3.38891 -14.4695 -17.0889 0 0 0 
1295 2 -10.3703 -13.7133 -17.2223 0 0 0 
1113 2 -0.774021 -12.1124 -17.5508 0 0 0 
1092 2 -2.35557 -6.20209 -16.8645 0 0 0 
1155 2 8.85891 -3.53457 -17.1161 0 0 0 
590 1 -5.74956 -2.32032 -16.7363 0 0 0 
589 1 -5.8238 -1.4152 -17.0757 0 0 0 
1218 2 -11.8221 -0.168936 -16.9029 0 0 0 
588 1 -5.84912 -0.381186 -16.9423 0 0 0 
1256 2 -13.4824 2.97618 -16.9382 0 0 0 
1017 2 7.59488 10.5704 -17.0817 0 0 0 
1016 2 8.26684 14.6021 -17.5719 0 0 0 
1154 2 8.76852 17.3547 -16.9881 0 0 0 
1164 2 -8.04035 -17.1806 -15.7598 0 0 0 
517 1 -4.11836 -15.7134 -15.6568 0 0 0 
870 1 0.0790298 -14.9161 -16.3629 0 0 0 
1203 2 9.56621 -15.3641 -15.6268 0 0 0 
1163 2 -5.53652 -14.4206 -15.6843 0 0 0 
864 1 3.51755 -13.7977 -16.4532 0 0 0 
863 1 3.71373 -13.3115 -15.5883 0 0 0 
1284 2 8.68995 -11.9584 -16.5144 0 0 0 
600 1 0.704341 -8.08646 -15.8974 0 0 0 
597 1 -1.58951 -6.87382 -15.792 0 0 0 
598 1 -0.827798 -7.45101 -15.5932 0 0 0 
595 1 -3.26261 -6.03351 -15.8086 0 0 0 
593 1 -4.48768 -4.76164 -15.7585 0 0 0 
592 1 -4.9062 -3.91785 -16.0659 0 0 0 
591 1 -5.48006 -3.21996 -16.4397 0 0 0 
586 1 -7.0445 0.66644 -15.9051 0 0 0 
587 1 -6.36953 0.381782 -16.6366 0 0 0 
1104 2 5.62538 5.77781 -16.6544 0 0 0 
1191 2 0.601523 13.2711 -15.9093 0 0 0 
1229 2 -12.217 -18.1354 -14.4498 0 0 0 
519 1 -3.20255 -17.0786 -14.8336 0 0 0 
903 1 -6.845 -16.1115 -15.0533 0 0 0 
518 1 -3.65132 -16.5658 -15.5134 0 0 0 
1239 2 -3.73383 -16.193 -14.4462 0 0 0 
873 1 -1.15065 -15.7955 -14.7335 0 0 0 
874 1 -2.06463 -15.9013 -15.0716 0 0 0 
904 1 -6.70276 -15.138 -15.0113 0 0 0 
516 1 -4.49756 -15.0076 -15.1697 0 0 0 
871 1 -0.192813 -14.787 -15.3952 0 0 0 
872 1 -0.468095 -15.2031 -14.5766 0 0 0 
858 1 7.51836 -14.685 -14.7661 0 0 0 
857 1 8.03944 -15.4268 -14.7735 0 0 0 
855 1 9.84713 -14.9987 -14.4867 0 0 0 
856 1 9.03474 -15.4573 -14.7389 0 0 0 
905 1 -6.95266 -14.2536 -14.7506 0 0 0 
1169 2 -5.80491 -14.0341 -14.4952 0 0 0 
515 1 -4.76251 -14.2138 -14.8254 0 0 0 
1297 2 1.29028 -13.9106 -15.243 0 0 0 
860 1 6.16239 -13.3788 -14.4512 0 0 0 
859 1 6.66219 -14.217 -14.6019 0 0 0 
854 1 10.4988 -14.4114 -14.9614 0 0 0 
853 1 10.5027 -13.4895 -15.053 0 0 0 
862 1 4.65144 -13.2504 -15.4405 0 0 0 
861 1 5.50558 -13.2832 -15.0714 0 0 0 
1042 2 9.21202 -12.5789 -15.2246 0 0 0 
852 1 10.2975 -12.5348 -15.2126 0 0 0 
851 1 10.0009 -11.9004 -14.5314 0 0 0 
599 1 -0.209668 -8.1945 -15.5252 0 0 0 
601 1 1.49768 -7.85719 -15.4844 0 0 0 
602 1 2.46051 -7.88509 -15.226 0 0 0 
603 1 3.2435 -7.68149 -14.7021 0 0 0 
596 1 -2.38082 -6.2823 -15.4629 0 0 0 
1081 2 -14.7712 -4.63967 -14.5194 0 0 0 
594 1 -4.09334 -5.5275 -15.4377 0 0 0 
585 1 -7.61857 0.873287 -15.1645 0 0 0 
578 1 -8.08084 3.70664 -14.774 0 0 0 
577 1 -7.04298 3.61626 -14.9811 0 0 0 
576 1 -6.06795 3.71463 -14.8826 0 0 0 
1273 2 -14.5794 7.72401 -15.4807 0 0 0 
1248 2 -15.2117 15.282 -15.4397 0 0 0 
1060 2 11.5475 15.6511 -15.4637 0 0 0 
883 1 -8.36788 -17.5103 -13.4872 0 0 0 
901 1 -6.52112 -17.3381 -13.5928 0 0 0 
902 1 -6.57002 -16.7143 -14.3734 0 0 0 
521 1 -3.91891 -17.3319 -13.7075 0 0 0 
520 1 -2.99657 -17.7044 -14.1396 0 0 0 
882 1 -7.89693 -16.663 -13.3731 0 0 0 
1136 2 -4.77274 -15.7224 -14.3064 0 0 0 
875 1 -2.66301 -15.7612 -14.3072 0 0 0 
878 1 -5.03475 -14.4569 -13.4093 0 0 0 
877 1 -4.16298 -14.7917 -13.7085 0 0 0 
876 1 -3.39342 -15.1899 -14.0502 0 0 0 
906 1 -7.36984 -13.6475 -14.1946 0 0 0 
1254 2 -6.35725 -13.4432 -13.7685 0 0 0 
514 1 -4.92874 -13.3894 -14.4109 0 0 0 
1129 2 5.67837 -14.3291 -14.3714 0 0 0 
907 1 -7.28188 -12.7572 -13.8643 0 0 0 
513 1 -5.43669 -13.0319 -13.664 0 0 0 
909 1 -7.11206 -11.3025 -14.1949 0 0 0 
908 1 -6.55884 -12.0651 -13.9985 0 0 0 
850 1 9.99291 -11.1947 -13.9489 0 0 0 
1184 2 -12.6108 -10.3218 -13.6043 0 0 0 
735 1 -11.5646 -10.8765 -13.7198 0 0 0 
734 1 -10.9899 -10.0512 -13.7611 0 0 0 
910 1 -7.67927 -10.5349 -14.1686 0 0 0 
849 1 10.8746 -10.8805 -13.6724 0 0 0 
733 1 -10.5855 -9.13678 -13.843 0 0 0 
911 1 -7.81194 -9.86739 -13.4938 0 0 0 
732 1 -11.015 -8.42683 -14.2191 0 0 0 
731 1 -10.6384 -7.95652 -13.4409 0 0 0 
604 1 4.02257 -7.27249 -14.3207 0 0 0 
605 1 4.81597 -7.24158 -13.813 0 0 0 
1276 2 10.4437 -0.934063 -13.3486 0 0 0 
584 1 -7.91916 1.0646 -14.2695 0 0 0 
583 1 -8.26563 1.65582 -13.5363 0 0 0 
582 1 -8.63935 2.49622 -13.3862 0 0 0 
575 1 -5.67939 3.24935 -14.1378 0 0 0 
574 1 -5.09043 2.66048 -13.6239 0 0 0 
580 1 -9.50809 3.43732 -13.6503 0 0 0 
579 1 -8.98549 3.69186 -14.3579 0 0 0 
1061 2 12.1431 6.03625 -13.5839 0 0 0 
1174 2 -16.4467 13.06 -14.0949 0 0 0 
884 1 -8.09675 -17.8277 -12.4922 0 0 0 
900 1 -6.98147 -17.9003 -12.9516 0 0 0 
1001 2 -8.97784 -17.1566 -12.798 0 0 0 
522 1 -4.27213 -16.7042 -13.0862 0 0 0 
881 1 -7.36724 -15.8667 -13.1058 0 0 0 
523 1 -3.99008 -16.043 -12.4442 0 0 0 
880 1 -6.78548 -15.1172 -13.0935 0 0 0 
879 1 -5.98949 -14.5677 -13.1329 0 0 0 
524 1 -3.24171 -15.4724 -12.6452 0 0 0 
525 1 -3.02731 -14.5799 -12.8906 0 0 0 
1124 2 -10.8015 -13.9024 -12.8251 0 0 0 
739 1 -14.5564 -12.2694 -13.0293 0 0 0 
738 1 -13.6203 -12.4366 -13.2957 0 0 0 
512 1 -5.93675 -12.8232 -12.8616 0 0 0 
737 1 -12.7184 -12.1901 -13.2443 0 0 0 
736 1 -11.9515 -11.5618 -13.1491 0 0 0 
226 1 0.519103 -11.9362 -12.2658 0 0 0 
225 1 1.2627 -11.3524 -12.3845 0 0 0 
1022 2 11.0724 -11.2747 -12.7374 0 0 0 
1145 2 12.2105 -11.5481 -13.234 0 0 0 
224 1 1.76901 -10.4907 -12.5196 0 0 0 
848 1 11.5953 -10.4521 -13.101 0 0 0 
847 1 12.1257 -10.6474 -12.2727 0 0 0 
1208 2 -8.63452 -9.03258 -13.0019 0 0 0 
912 1 -7.21663 -9.79646 -12.7661 0 0 0 
913 1 -6.44917 -9.9861 -12.2563 0 0 0 
730 1 -10.506 -7.03817 -13.0361 0 0 0 
1219 2 -1.86171 -6.82707 -12.3696 0 0 0 
606 1 5.22602 -7.0048 -13.0071 0 0 0 
607 1 5.17155 -7.70137 -12.4004 0 0 0 
1108 2 16.5642 -7.07009 -12.652 0 0 0 
729 1 -10.3329 -6.14686 -12.7528 0 0 0 
728 1 -10.5845 -5.26967 -12.3402 0 0 0 
573 1 -5.31989 1.93344 -13.0026 0 0 0 
581 1 -9.03565 3.11962 -12.7717 0 0 0 
1005 2 -10.7151 4.85579 -12.9209 0 0 0 
1023 2 -12.882 5.8824 -12.2957 0 0 0 
896 1 -9.37797 -17.8675 -11.7283 0 0 0 
897 1 -8.86055 -18.6829 -11.5526 0 0 0 
898 1 -7.94055 -18.5956 -11.6373 0 0 0 
899 1 -7.13589 -18.2569 -12.0276 0 0 0 
895 1 -9.75533 -16.9351 -11.8086 0 0 0 
885 1 -8.25894 -17.1615 -11.7999 0 0 0 
894 1 -10.1609 -16.0918 -11.7382 0 0 0 
886 1 -8.55768 -16.4926 -11.1559 0 0 0 
892 1 -11.3163 -15.1243 -11.5616 0 0 0 
893 1 -10.5823 -15.2918 -12.1785 0 0 0 
1272 2 -6.78689 -14.5373 -11.4632 0 0 0 
526 1 -3.37624 -14.1795 -12.0951 0 0 0 
527 1 -3.44097 -13.4803 -11.4289 0 0 0 
740 1 -14.8871 -12.614 -12.2164 0 0 0 
741 1 -15.0636 -12.9233 -11.3008 0 0 0 
511 1 -6.42143 -12.6902 -12.043 0 0 0 
227 1 0.390031 -12.6464 -11.6628 0 0 0 
1289 2 -3.67932 -11.4492 -11.4521 0 0 0 
1198 2 11.6757 -11.834 -11.6155 0 0 0 
914 1 -5.6417 -10.3874 -11.9072 0 0 0 
846 1 12.5943 -10.8718 -11.4262 0 0 0 
223 1 2.12005 -9.80573 -11.9082 0 0 0 
222 1 2.54051 -9.02317 -11.5447 0 0 0 
221 1 2.95152 -8.16963 -11.4407 0 0 0 
1114 2 -3.81984 -6.79948 -11.3411 0 0 0 
608 1 5.16352 -7.60355 -11.4465 0 0 0 
727 1 -10.8592 -4.3925 -11.9607 0 0 0 
726 1 -10.8967 -3.53541 -11.57 0 0 0 
725 1 -11.6723 -3.03277 -11.6135 0 0 0 
723 1 -12.5609 -1.51959 -11.2907 0 0 0 
724 1 -11.8561 -2.04981 -11.4981 0 0 0 
15 1 13.0127 -1.40494 -11.7773 0 0 0 
17 1 11.81 -0.0346537 -11.9345 0 0 0 
16 1 12.7298 -0.424653 -11.9835 0 0 0 
721 1 -13.406 0.127108 -11.2194 0 0 0 
674 1 -3.57039 0.565249 -11.1767 0 0 0 
1078 2 -2.26646 0.900343 -11.4953 0 0 0 
18 1 11.1766 0.526816 -11.5668 0 0 0 
1232 2 15.5127 0.209167 -11.9835 0 0 0 
572 1 -5.35514 1.55458 -12.1462 0 0 0 
571 1 -4.96594 1.4021 -11.2704 0 0 0 
673 1 -3.44916 1.42594 -11.6722 0 0 0 
1041 2 -12.6544 2.8007 -11.5591 0 0 0 
671 1 -3.67958 3.09528 -11.2439 0 0 0 
672 1 -3.69671 2.34406 -11.7803 0 0 0 
1205 2 -14.7304 3.70219 -11.2415 0 0 0 
717 1 -13.6129 3.92207 -11.1474 0 0 0 
1038 2 -11.6681 3.35344 -11.5584 0 0 0 
716 1 -13.5919 4.76012 -11.7024 0 0 0 
715 1 -13.5726 5.65736 -11.5752 0 0 0 
714 1 -13.0745 6.43595 -11.4053 0 0 0 
1268 2 12.7887 6.95327 -12.0349 0 0 0 
1027 2 2.46907 8.90445 -11.861 0 0 0 
1057 2 -15.5913 -17.623 -10.4849 0 0 0 
887 1 -8.88764 -16.365 -10.2029 0 0 0 
891 1 -11.3094 -15.1508 -10.5496 0 0 0 
1012 2 -3.28242 -14.5137 -10.8599 0 0 0 
742 1 -14.2566 -13.3949 -10.8084 0 0 0 
508 1 -8.27258 -13.382 -10.7493 0 0 0 
507 1 -8.78479 -12.5714 -10.5783 0 0 0 
509 1 -7.32284 -13.3058 -10.8903 0 0 0 
510 1 -6.45239 -12.9447 -11.111 0 0 0 
528 1 -3.9328 -12.7481 -10.9789 0 0 0 
228 1 0.278845 -13.1409 -10.808 0 0 0 
506 1 -9.35712 -11.7476 -10.4263 0 0 0 
529 1 -4.54813 -12.1562 -10.5831 0 0 0 
530 1 -3.91958 -11.421 -10.1405 0 0 0 
1294 2 -3.17054 -12.0068 -10.363 0 0 0 
845 1 13.4147 -11.1674 -10.994 0 0 0 
843 1 15.28 -11.414 -10.6307 0 0 0 
916 1 -5.88192 -10.9899 -10.2995 0 0 0 
915 1 -5.39665 -10.5064 -10.9652 0 0 0 
532 1 -2.85235 -10.2939 -10.2048 0 0 0 
844 1 14.3815 -11.1087 -11.0836 0 0 0 
1195 2 -13.217 -8.91323 -10.2174 0 0 0 
533 1 -2.45065 -9.44894 -10.3067 0 0 0 
534 1 -2.67495 -8.45527 -10.238 0 0 0 
1280 2 -4.96818 -7.10888 -10.5639 0 0 0 
536 1 -3.94475 -7.15 -10.2448 0 0 0 
535 1 -3.15207 -7.6896 -10.5848 0 0 0 
220 1 2.99917 -7.4269 -10.8403 0 0 0 
609 1 5.64302 -7.00461 -10.8539 0 0 0 
1240 2 8.52509 -6.84032 -10.2544 0 0 0 
218 1 1.94717 -6.19587 -10.4928 0 0 0 
219 1 2.56699 -6.55445 -11.0967 0 0 0 
610 1 5.92461 -6.16682 -10.3805 0 0 0 
1209 2 17.8081 -6.46003 -10.8972 0 0 0 
1013 2 -2.59147 -5.00613 -10.0175 0 0 0 
14 1 12.7731 -1.63279 -10.8226 0 0 0 
722 1 -13.1455 -0.799762 -11.0838 0 0 0 
720 1 -13.5249 1.08151 -10.9826 0 0 0 
675 1 -3.63082 0.0338722 -10.362 0 0 0 
568 1 -2.28697 1.0977 -10.2848 0 0 0 
20 1 9.43503 1.06152 -10.997 0 0 0 
19 1 10.3577 0.737536 -11.083 0 0 0 
719 1 -13.7013 2.07001 -10.9054 0 0 0 
570 1 -4.18028 1.39399 -10.5862 0 0 0 
569 1 -3.27433 1.24605 -10.221 0 0 0 
567 1 -1.49064 1.67275 -10.3494 0 0 0 
21 1 9.29174 1.99539 -10.8173 0 0 0 
718 1 -13.4463 2.98665 -10.845 0 0 0 
566 1 -1.19244 2.54961 -10.557 0 0 0 
565 1 -0.517255 2.94289 -10.015 0 0 0 
670 1 -3.90056 3.76893 -10.6187 0 0 0 
26 1 6.46709 3.60025 -10.1725 0 0 0 
27 1 5.74522 4.09216 -10.6094 0 0 0 
1063 2 -10.9991 4.92354 -10.8718 0 0 0 
669 1 -4.15552 4.64606 -10.2724 0 0 0 
713 1 -12.8131 6.92809 -10.6798 0 0 0 
1131 2 -9.96072 14.0287 -10.27 0 0 0 
1245 2 -11.4145 17.7739 -11.044 0 0 0 
1277 2 1.671 -17.9632 -9.93725 0 0 0 
888 1 -9.79682 -16.806 -9.94173 0 0 0 
889 1 -10.4974 -16.1304 -9.74372 0 0 0 
1085 2 3.95571 -16.1062 -9.81262 0 0 0 
1031 2 -15.7217 -14.508 -9.58115 0 0 0 
890 1 -10.9174 -15.2311 -9.69465 0 0 0 
743 1 -14.2128 -13.8288 -9.97685 0 0 0 
744 1 -14.1219 -14.0659 -9.00793 0 0 0 
229 1 0.0781628 -13.5214 -9.83302 0 0 0 
917 1 -5.53049 -11.2804 -9.45194 0 0 0 
505 1 -9.58112 -10.9689 -9.89816 0 0 0 
504 1 -9.64948 -10.1273 -9.35479 0 0 0 
531 1 -3.40493 -10.8167 -9.61228 0 0 0 
842 1 15.2817 -10.9132 -9.79648 0 0 0 
841 1 14.8299 -10.0338 -9.5307 0 0 0 
1054 2 0.384131 -9.67778 -9.79101 0 0 0 
541 1 -5.34244 -8.38136 -9.10475 0 0 0 
1094 2 -3.95961 -8.73787 -9.19463 0 0 0 
539 1 -6.2314 -6.85459 -9.69668 0 0 0 
540 1 -5.87832 -7.59945 -9.1023 0 0 0 
1283 2 -3.32735 -7.66692 -9.32048 0 0 0 
538 1 -5.40309 -6.23349 -9.95265 0 0 0 
537 1 -4.44737 -6.42818 -9.86065 0 0 0 
217 1 1.65114 -5.76908 -9.64391 0 0 0 
611 1 6.39442 -5.71906 -9.65657 0 0 0 
612 1 6.60984 -5.03762 -8.9601 0 0 0 
11 1 11.3025 -1.15437 -9.40181 0 0 0 
13 1 12.9156 -1.72867 -9.88129 0 0 0 
12 1 12.2439 -1.456 -9.24518 0 0 0 
677 1 -4.97832 -0.235433 -9.23288 0 0 0 
676 1 -4.0148 -0.534703 -9.65773 0 0 0 
10 1 11.4039 -0.184292 -9.29882 0 0 0 
1236 2 -4.54087 0.483916 -9.98506 0 0 0 
678 1 -5.10904 0.685331 -8.94798 0 0 0 
9 1 11.0661 0.736721 -9.26704 0 0 0 
679 1 -5.10916 1.70047 -8.94647 0 0 0 
23 1 8.20206 1.68182 -9.27894 0 0 0 
22 1 8.93871 1.86638 -9.92338 0 0 0 
8 1 10.3935 1.41437 -9.27642 0 0 0 
1111 2 -3.57217 3.25712 -9.6374 0 0 0 
564 1 0.10583 2.84968 -9.27755 0 0 0 
24 1 7.54344 2.45575 -9.16925 0 0 0 
25 1 6.90933 3.21321 -9.50826 0 0 0 
1300 2 15.4846 3.11673 -9.76547 0 0 0 
664 1 -0.743415 4.21996 -8.89646 0 0 0 
1010 2 -13.9431 4.65498 -9.72156 0 0 0 
668 1 -3.82421 5.40555 -9.79048 0 0 0 
667 1 -2.92211 5.11302 -9.7524 0 0 0 
666 1 -1.9633 5.09476 -9.82422 0 0 0 
665 1 -1.22026 4.47673 -9.66963 0 0 0 
28 1 5.31727 4.70618 -9.95074 0 0 0 
29 1 5.5128 5.43234 -9.4221 0 0 0 
689 1 -7.40308 6.29099 -8.92372 0 0 0 
30 1 5.85112 6.26961 -9.18055 0 0 0 
712 1 -12.2916 7.37223 -9.98407 0 0 0 
711 1 -11.409 7.51385 -9.68528 0 0 0 
710 1 -10.621 7.15884 -9.29187 0 0 0 
1097 2 7.9902 6.77498 -9.1089 0 0 0 
1202 2 -11.8241 14.6419 -9.78979 0 0 0 
1270 2 -4.27183 15.3857 -9.01036 0 0 0 
745 1 -13.4797 -14.4464 -8.36873 0 0 0 
230 1 0.167437 -13.5988 -8.88033 0 0 0 
231 1 1.0549 -13.2446 -8.64615 0 0 0 
232 1 1.21419 -12.304 -8.63977 0 0 0 
918 1 -4.90131 -11.1907 -8.69136 0 0 0 
233 1 1.39133 -11.3392 -8.65937 0 0 0 
919 1 -4.41082 -11.0653 -7.83476 0 0 0 
234 1 0.724336 -10.7665 -8.19464 0 0 0 
503 1 -9.32211 -9.50138 -8.5131 0 0 0 
840 1 14.8823 -9.44499 -8.78467 0 0 0 
501 1 -9.89616 -7.84216 -7.91941 0 0 0 
502 1 -9.62073 -8.78001 -7.89811 0 0 0 
542 1 -5.90921 -8.19167 -8.3146 0 0 0 
839 1 15.0827 -8.73914 -8.11639 0 0 0 
500 1 -9.751 -7.04156 -8.46547 0 0 0 
543 1 -6.20295 -7.43114 -7.79964 0 0 0 
1288 2 -5.2157 -6.83709 -8.4184 0 0 0 
216 1 1.8747 -5.68737 -8.66486 0 0 0 
613 1 6.74504 -4.5071 -8.22466 0 0 0 
1132 2 1.51442 -4.3204 -7.82112 0 0 0 
1115 2 12.9885 -1.44045 -8.42924 0 0 0 
1095 2 -4.01504 -0.101295 -8.66878 0 0 0 
6 1 9.24235 1.56749 -7.98111 0 0 0 
7 1 9.65382 1.85375 -8.84433 0 0 0 
681 1 -6.23498 2.55532 -7.78419 0 0 0 
680 1 -5.38585 2.31938 -8.25654 0 0 0 
563 1 -0.22918 2.31389 -8.46929 0 0 0 
663 1 -0.513491 4.3974 -7.92223 0 0 0 
691 1 -8.65133 5.23299 -8.03778 0 0 0 
709 1 -10.0118 6.65794 -8.68636 0 0 0 
708 1 -9.53351 6.56249 -7.79605 0 0 0 
690 1 -8.02131 5.65169 -8.65678 0 0 0 
1089 2 -12.0781 7.06941 -8.81889 0 0 0 
1075 2 -8.98157 6.86192 -8.74488 0 0 0 
688 1 -6.75142 6.84378 -8.58681 0 0 0 
1116 2 3.7025 7.73439 -8.02871 0 0 0 
31 1 5.33123 7.00184 -8.82866 0 0 0 
32 1 5.53556 7.94756 -8.60155 0 0 0 
1186 2 -11.7276 15.8145 -7.93547 0 0 0 
747 1 -12.2053 -15.5797 -7.42826 0 0 0 
748 1 -11.2528 -15.922 -7.05089 0 0 0 
746 1 -12.9422 -15.0166 -7.77291 0 0 0 
442 1 2.74544 -14.4982 -6.89305 0 0 0 
443 1 2.84242 -13.4944 -6.79932 0 0 0 
1265 2 13.3079 -13.6766 -7.30457 0 0 0 
444 1 2.99219 -12.5452 -6.83552 0 0 0 
920 1 -4.39406 -11.3176 -6.89056 0 0 0 
235 1 0.715944 -10.0485 -7.61613 0 0 0 
236 1 1.0028 -9.67451 -6.76675 0 0 0 
1156 2 -15.8209 -8.36563 -7.66738 0 0 0 
838 1 14.9768 -8.26934 -7.24401 0 0 0 
499 1 -9.57193 -6.25414 -7.74777 0 0 0 
498 1 -8.98835 -6.17322 -6.9856 0 0 0 
544 1 -6.42055 -6.5313 -7.51298 0 0 0 
215 1 1.80421 -5.34674 -7.72827 0 0 0 
214 1 1.80433 -4.91867 -6.86579 0 0 0 
614 1 6.97746 -3.76489 -7.62315 0 0 0 
1105 2 5.76182 -2.72329 -6.94485 0 0 0 
615 1 7.07922 -3.2946 -6.70831 0 0 0 
5 1 9.17655 0.891703 -7.23391 0 0 0 
561 1 -0.298665 2.18397 -6.70899 0 0 0 
682 1 -7.03851 2.56201 -7.28511 0 0 0 
562 1 0.0241004 2.33357 -7.57586 0 0 0 
693 1 -9.65201 4.26009 -6.74181 0 0 0 
684 1 -7.42864 4.18342 -7.03317 0 0 0 
662 1 -0.523043 4.18985 -7.02735 0 0 0 
692 1 -9.17042 4.57077 -7.52591 0 0 0 
685 1 -7.17407 5.06384 -7.39992 0 0 0 
707 1 -9.38658 6.58275 -6.89491 0 0 0 
1109 2 -8.31393 6.65217 -7.41029 0 0 0 
687 1 -6.78621 6.49954 -7.66505 0 0 0 
686 1 -7.31028 5.90018 -7.02342 0 0 0 
34 1 4.85128 7.71918 -6.85083 0 0 0 
33 1 5.09942 8.07702 -7.76916 0 0 0 
1290 2 -7.82865 9.54659 -6.9337 0 0 0 
271 1 0.0640919 12.0124 -6.8546 0 0 0 
749 1 -10.7486 -15.6795 -6.30222 0 0 0 
750 1 -11.0318 -15.0874 -5.5811 0 0 0 
441 1 2.22509 -14.9771 -6.08961 0 0 0 
921 1 -4.157 -11.2967 -5.96111 0 0 0 
1171 2 -3.51206 -12.172 -5.72039 0 0 0 
445 1 3.17714 -11.676 -6.55866 0 0 0 
446 1 3.58701 -11.1495 -5.91497 0 0 0 
1167 2 -2.15907 -10.448 -5.80807 0 0 0 
238 1 -0.614424 -9.32757 -5.9035 0 0 0 
237 1 0.262259 -9.46956 -6.22477 0 0 0 
1070 2 -3.56563 -7.8276 -6.3287 0 0 0 
239 1 -1.33082 -8.77662 -6.17592 0 0 0 
240 1 -1.54798 -7.87538 -6.34985 0 0 0 
837 1 14.6579 -7.91898 -6.32282 0 0 0 
546 1 -7.17669 -7.16168 -5.89719 0 0 0 
545 1 -6.66021 -6.84728 -6.65031 0 0 0 
241 1 -1.32497 -7.04399 -5.9238 0 0 0 
1278 2 0.939248 -7.39248 -5.56131 0 0 0 
497 1 -8.58509 -5.5864 -6.23482 0 0 0 
1072 2 -6.44595 -5.72842 -5.73543 0 0 0 
1269 2 7.72975 -6.12437 -6.44033 0 0 0 
496 1 -9.09023 -4.93841 -5.74753 0 0 0 
1242 2 -0.752935 -5.10556 -6.2586 0 0 0 
213 1 1.62048 -5.25886 -5.99845 0 0 0 
1228 2 5.92309 -4.76316 -5.74068 0 0 0 
616 1 7.27221 -2.43762 -6.32248 0 0 0 
1234 2 -4.89916 -1.1848 -5.78104 0 0 0 
1261 2 -4.29383 -1.83078 -6.31608 0 0 0 
1168 2 0.0122144 -2.02208 -5.94802 0 0 0 
617 1 7.09585 -1.68217 -5.80737 0 0 0 
1267 2 17.3684 -0.491472 -5.79793 0 0 0 
4 1 8.92426 0.474005 -6.37126 0 0 0 
560 1 -0.823225 1.50048 -6.26194 0 0 0 
683 1 -7.27673 3.22663 -6.65063 0 0 0 
694 1 -10.2231 3.87532 -6.02533 0 0 0 
661 1 -0.34385 4.43819 -6.11712 0 0 0 
1006 2 -4.32203 5.61349 -6.38092 0 0 0 
1274 2 2.12652 5.67361 -6.46314 0 0 0 
263 1 2.5939 6.34691 -5.57367 0 0 0 
36 1 5.94991 6.64645 -5.88386 0 0 0 
706 1 -9.40562 6.74146 -5.96208 0 0 0 
1160 2 -2.25622 7.22933 -6.53587 0 0 0 
35 1 5.08311 7.07086 -6.18752 0 0 0 
1298 2 4.82535 8.25879 -5.81445 0 0 0 
270 1 0.637898 11.5686 -6.2239 0 0 0 
272 1 -0.798415 12.4537 -6.52245 0 0 0 
273 1 -1.04931 13.113 -5.88983 0 0 0 
1007 2 -1.6623 15.5378 -6.17245 0 0 0 
1181 2 -9.10251 15.6481 -6.56719 0 0 0 
1098 2 -3.68371 -17.2066 -5.06471 0 0 0 
440 1 2.34152 -15.5784 -5.40149 0 0 0 
439 1 2.97351 -15.95 -4.80853 0 0 0 
751 1 -11.1609 -14.243 -5.14811 0 0 0 
752 1 -10.7327 -13.491 -4.65249 0 0 0 
1200 2 -8.49734 -12.3526 -5.41362 0 0 0 
922 1 -3.36497 -11.1693 -5.37548 0 0 0 
923 1 -2.82921 -10.5614 -4.71869 0 0 0 
447 1 3.90746 -10.457 -5.33532 0 0 0 
939 1 7.75625 -10.1872 -4.46568 0 0 0 
938 1 6.85303 -10.0519 -4.94606 0 0 0 
1158 2 11.5441 -10.7927 -5.07425 0 0 0 
448 1 4.20791 -9.67189 -4.75276 0 0 0 
936 1 5.28917 -8.91789 -4.89046 0 0 0 
937 1 5.95101 -9.59078 -4.9456 0 0 0 
941 1 9.27672 -9.1873 -4.52686 0 0 0 
242 1 -1.12149 -7.0338 -4.98222 0 0 0 
835 1 14.0919 -6.91984 -4.8212 0 0 0 
836 1 14.6024 -7.58996 -5.42381 0 0 0 
547 1 -7.00206 -6.49409 -5.23653 0 0 0 
548 1 -6.2401 -6.15596 -4.8007 0 0 0 
834 1 13.7826 -5.95573 -4.46488 0 0 0 
1224 2 -12.4691 -5.40215 -5.31232 0 0 0 
495 1 -9.12817 -5.24105 -4.78583 0 0 0 
550 1 -5.97708 -4.85888 -5.1093 0 0 0 
549 1 -5.48594 -5.48879 -4.55685 0 0 0 
212 1 1.36063 -5.08886 -5.07783 0 0 0 
833 1 13.0826 -5.29174 -4.47599 0 0 0 
551 1 -5.75057 -4.03977 -4.62753 0 0 0 
211 1 1.48786 -4.37321 -4.46006 0 0 0 
552 1 -5.33479 -3.12989 -4.77793 0 0 0 
553 1 -4.87069 -2.48012 -5.41147 0 0 0 
554 1 -4.08036 -1.98891 -5.22049 0 0 0 
251 1 -1.6876 -1.51714 -4.81848 0 0 0 
252 1 -0.764369 -1.32477 -5.15215 0 0 0 
181 1 -7.58971 -0.127804 -4.68612 0 0 0 
555 1 -3.88615 -1.07083 -5.39174 0 0 0 
556 1 -3.08898 -0.513585 -5.23329 0 0 0 
253 1 -0.276177 -0.509313 -5.07798 0 0 0 
254 1 0.533503 -0.161289 -5.29881 0 0 0 
618 1 6.55473 -0.99124 -5.30917 0 0 0 
619 1 6.24594 -0.206137 -4.87228 0 0 0 
180 1 -8.4984 0.255972 -4.57786 0 0 0 
557 1 -2.44394 0.125959 -4.94153 0 0 0 
558 1 -1.50428 0.186617 -4.97393 0 0 0 
559 1 -1.138 0.868707 -5.5527 0 0 0 
255 1 0.947702 0.322954 -4.59173 0 0 0 
620 1 5.79021 0.551531 -4.59438 0 0 0 
3 1 8.41642 0.470038 -5.53544 0 0 0 
2 1 8.03474 0.637501 -4.61982 0 0 0 
695 1 -10.6874 3.16736 -5.48777 0 0 0 
259 1 2.0907 3.29181 -4.94728 0 0 0 
260 1 2.43811 4.17138 -5.19961 0 0 0 
1119 2 -9.33263 4.53832 -5.3562 0 0 0 
660 1 0.256352 4.95073 -5.49931 0 0 0 
659 1 1.05714 5.09126 -4.98996 0 0 0 
658 1 1.54963 4.47994 -4.48807 0 0 0 
1107 2 2.12092 5.38407 -4.69625 0 0 0 
261 1 2.71511 4.98881 -5.54283 0 0 0 
262 1 3.15705 5.69994 -5.20091 0 0 0 
705 1 -9.56307 7.02889 -5.06169 0 0 0 
264 1 2.30293 7.14467 -5.07245 0 0 0 
37 1 6.77014 6.97462 -5.54467 0 0 0 
38 1 7.42993 7.38853 -4.94014 0 0 0 
265 1 1.96192 7.99697 -5.05739 0 0 0 
1030 2 4.29228 8.59189 -4.59547 0 0 0 
39 1 7.8168 8.11389 -4.44974 0 0 0 
1144 2 14.2929 8.14119 -4.61435 0 0 0 
1039 2 0.517955 9.3581 -4.68062 0 0 0 
266 1 2.19021 8.9553 -5.14666 0 0 0 
267 1 1.565 9.68759 -4.96682 0 0 0 
286 1 -7.84209 10.037 -4.81732 0 0 0 
285 1 -6.8991 10.2286 -4.53131 0 0 0 
284 1 -5.98295 10.4268 -4.50398 0 0 0 
269 1 0.239556 10.9672 -5.54263 0 0 0 
268 1 0.926663 10.3089 -5.25591 0 0 0 
1135 2 -11.5717 11.9931 -4.47462 0 0 0 
274 1 -1.80445 13.2707 -5.2451 0 0 0 
1008 2 3.9115 13.0883 -4.66474 0 0 0 
1101 2 16.8016 12.9682 -4.46196 0 0 0 
438 1 3.71383 -15.5852 -4.31131 0 0 0 
1130 2 17.4803 -15.6206 -3.81471 0 0 0 
437 1 4.53443 -15.3248 -3.94579 0 0 0 
753 1 -10.4879 -12.7161 -4.13824 0 0 0 
754 1 -9.99904 -12.161 -3.55706 0 0 0 
1193 2 -3.82672 -10.6071 -3.84742 0 0 0 
1262 2 -2.82632 -11.1065 -3.65213 0 0 0 
924 1 -2.06552 -10.3408 -4.05292 0 0 0 
925 1 -1.29034 -10.0003 -3.54485 0 0 0 
926 1 -0.480488 -9.52106 -3.49008 0 0 0 
927 1 0.388251 -9.07957 -3.49917 0 0 0 
450 1 4.03463 -9.54254 -3.52641 0 0 0 
449 1 4.81302 -9.91332 -3.99722 0 0 0 
940 1 8.64399 -9.88053 -4.19261 0 0 0 
492 1 -8.87781 -7.78864 -3.52902 0 0 0 
935 1 4.94249 -8.22978 -4.3508 0 0 0 
942 1 9.77826 -8.37205 -4.28714 0 0 0 
943 1 10.5154 -8.00977 -3.82012 0 0 0 
493 1 -9.02942 -7.00464 -4.20774 0 0 0 
243 1 -1.06293 -6.73583 -4.12494 0 0 0 
930 1 1.93786 -6.81654 -3.4409 0 0 0 
934 1 4.99687 -7.26636 -4.31205 0 0 0 
494 1 -9.02771 -6.01355 -4.16239 0 0 0 
931 1 2.66783 -6.48585 -3.9669 0 0 0 
932 1 3.63737 -6.38478 -3.81902 0 0 0 
933 1 4.53957 -6.61488 -3.77561 0 0 0 
832 1 13.1375 -4.62795 -3.76288 0 0 0 
210 1 1.11365 -3.6331 -3.88502 0 0 0 
249 1 -2.2248 -3.06804 -3.71005 0 0 0 
250 1 -2.06086 -2.25053 -4.22676 0 0 0 
1011 2 -0.876764 -1.12509 -4.06252 0 0 0 
178 1 -9.95916 -0.466356 -3.86933 0 0 0 
1103 2 -7.83755 -0.0796476 -3.63771 0 0 0 
182 1 -6.79581 -0.142371 -4.06241 0 0 0 
188 1 -4.56859 -0.619565 -4.18002 0 0 0 
187 1 -5.2207 -0.613232 -3.46983 0 0 0 
189 1 -3.70535 -0.292232 -3.81218 0 0 0 
1178 2 5.38189 -0.677831 -4.28154 0 0 0 
179 1 -9.23987 0.129474 -4.08895 0 0 0 
256 1 1.17176 0.989129 -3.87835 0 0 0 
621 1 5.77331 0.787076 -3.62149 0 0 0 
1 1 7.47231 0.693255 -3.78984 0 0 0 
257 1 1.63254 1.82861 -3.88672 0 0 0 
696 1 -10.8518 3.03572 -4.42287 0 0 0 
697 1 -11.0889 2.96488 -3.48949 0 0 0 
258 1 1.98833 2.62035 -4.25858 0 0 0 
1221 2 3.17476 2.98514 -3.36238 0 0 0 
657 1 1.91502 3.92454 -3.80875 0 0 0 
656 1 2.94526 4.00781 -3.75 0 0 0 
1190 2 0.136934 4.51053 -4.30536 0 0 0 
655 1 3.76701 4.59832 -3.75138 0 0 0 
654 1 4.2328 5.47431 -3.63733 0 0 0 
1170 2 -11.8261 5.60992 -3.55867 0 0 0 
1275 2 1.0967 6.33342 -4.34907 0 0 0 
653 1 4.89984 6.11197 -3.36637 0 0 0 
704 1 -10.2457 7.27254 -4.3029 0 0 0 
703 1 -10.7183 6.93183 -3.52413 0 0 0 
42 1 9.9636 7.65738 -4.03019 0 0 0 
40 1 8.62776 8.83088 -4.43496 0 0 0 
41 1 9.53527 8.56257 -4.28251 0 0 0 
287 1 -8.31601 9.29593 -4.32748 0 0 0 
288 1 -8.51062 8.90345 -3.45153 0 0 0 
1047 2 14.1647 9.98787 -4.19945 0 0 0 
283 1 -5.09473 10.0593 -4.17177 0 0 0 
282 1 -4.19496 10.2763 -3.98473 0 0 0 
281 1 -3.3109 10.5842 -3.74061 0 0 0 
276 1 -2.16943 12.7909 -3.49312 0 0 0 
275 1 -1.74835 13.1003 -4.32624 0 0 0 
436 1 4.80107 -14.8662 -3.15796 0 0 0 
435 1 5.08978 -15.2861 -2.35076 0 0 0 
757 1 -12.4072 -11.5589 -2.87379 0 0 0 
756 1 -11.4401 -11.5093 -2.5272 0 0 0 
755 1 -10.7176 -11.6594 -3.19213 0 0 0 
758 1 -12.7842 -10.7882 -2.41176 0 0 0 
1281 2 9.08216 -10.6744 -2.50004 0 0 0 
451 1 3.9784 -8.92976 -2.78488 0 0 0 
490 1 -10.3284 -8.65348 -2.65234 0 0 0 
491 1 -9.58427 -8.10371 -2.96592 0 0 0 
928 1 1.13949 -8.54928 -3.1212 0 0 0 
944 1 11.2759 -8.07423 -3.25724 0 0 0 
945 1 12.0511 -8.21976 -2.69123 0 0 0 
929 1 1.50397 -7.65071 -3.31125 0 0 0 
245 1 -1.24071 -5.95497 -2.38296 0 0 0 
244 1 -1.06403 -6.55493 -3.13408 0 0 0 
1046 2 -12.0848 -4.46115 -2.96032 0 0 0 
246 1 -1.67765 -5.08028 -2.26878 0 0 0 
831 1 13.3653 -4.90769 -2.75966 0 0 0 
247 1 -1.84745 -4.09436 -2.22888 0 0 0 
248 1 -1.93021 -3.7536 -3.13605 0 0 0 
209 1 0.789725 -3.35629 -3.01723 0 0 0 
1147 2 13.0464 -3.52116 -2.42852 0 0 0 
175 1 -10.6791 -2.55214 -2.37608 0 0 0 
176 1 -10.8284 -1.79722 -2.97605 0 0 0 
177 1 -10.5266 -0.878404 -3.27187 0 0 0 
186 1 -5.59946 -0.651757 -2.63239 0 0 0 
190 1 -2.89846 -0.160199 -3.26091 0 0 0 
184 1 -6.71261 0.343782 -2.23848 0 0 0 
183 1 -6.56872 0.314505 -3.21266 0 0 0 
191 1 -2.73497 0.0853712 -2.36699 0 0 0 
622 1 5.33825 1.44448 -3.01152 0 0 0 
698 1 -10.9641 3.25547 -2.58249 0 0 0 
623 1 4.91368 2.38307 -3.0914 0 0 0 
624 1 4.8204 2.97373 -2.3869 0 0 0 
701 1 -10.4262 5.4954 -2.30489 0 0 0 
702 1 -10.7268 6.15137 -2.95213 0 0 0 
652 1 5.18906 6.57313 -2.61317 0 0 0 
1150 2 7.7198 5.85747 -2.48018 0 0 0 
43 1 10.3535 7.26811 -3.21515 0 0 0 
44 1 10.3618 7.2191 -2.28261 0 0 0 
1213 2 -16.3702 8.5125 -3.11606 0 0 0 
289 1 -9.22812 8.7729 -2.85315 0 0 0 
1159 2 -11.3117 9.64531 -2.61323 0 0 0 
280 1 -2.91017 9.92409 -3.16134 0 0 0 
279 1 -2.69086 10.7799 -2.8107 0 0 0 
278 1 -2.88013 11.7171 -2.70461 0 0 0 
277 1 -2.79678 12.6919 -2.78291 0 0 0 
1258 2 15.9474 13.6009 -2.42022 0 0 0 
434 1 5.17233 -14.9595 -1.4321 0 0 0 
1090 2 10.504 -14.8751 -1.92023 0 0 0 
1112 2 4.47621 -14.2596 -1.11123 0 0 0 
1056 2 11.2406 -13.9362 -1.56306 0 0 0 
1231 2 -15.7515 -10.5316 -1.61305 0 0 0 
488 1 -10.7765 -10.0843 -1.69448 0 0 0 
425 1 8.84755 -11.0146 -1.39723 0 0 0 
424 1 9.70225 -10.4969 -1.16331 0 0 0 
759 1 -12.9678 -9.99401 -1.95889 0 0 0 
489 1 -10.5647 -9.08831 -1.87264 0 0 0 
452 1 3.63692 -8.19932 -2.21035 0 0 0 
422 1 9.9297 -8.72985 -1.16987 0 0 0 
421 1 9.83601 -7.78641 -1.18255 0 0 0 
946 1 12.1483 -8.69823 -1.88128 0 0 0 
453 1 3.03749 -7.45765 -2.17544 0 0 0 
454 1 2.71951 -6.48529 -2.04147 0 0 0 
455 1 2.76485 -5.66699 -1.45825 0 0 0 
830 1 13.9431 -4.73131 -1.91162 0 0 0 
1026 2 16.6671 -5.50134 -1.67146 0 0 0 
173 1 -9.78525 -3.80132 -1.30172 0 0 0 
208 1 0.189952 -3.35146 -2.21982 0 0 0 
174 1 -10.1762 -3.15777 -1.84965 0 0 0 
207 1 0.324951 -2.94659 -1.29441 0 0 0 
185 1 -5.91771 -0.0848645 -1.89234 0 0 0 
192 1 -2.03778 -0.0022571 -1.58173 0 0 0 
193 1 -1.19059 -0.255701 -1.13121 0 0 0 
194 1 -0.299333 -0.257919 -1.29024 0 0 0 
195 1 0.651779 -0.348806 -1.3545 0 0 0 
196 1 1.59401 -0.318993 -1.37692 0 0 0 
197 1 2.56161 -0.391323 -1.58984 0 0 0 
699 1 -10.7477 3.95429 -1.93137 0 0 0 
625 1 4.86847 3.90983 -2.19294 0 0 0 
700 1 -10.3474 4.78989 -1.66566 0 0 0 
626 1 5.02889 4.84309 -1.70578 0 0 0 
649 1 7.12144 5.43561 -1.54117 0 0 0 
1211 2 -10.2217 5.81744 -1.17647 0 0 0 
651 1 5.69169 6.10542 -1.8963 0 0 0 
650 1 6.26959 5.79139 -1.21711 0 0 0 
1153 2 5.06414 7.06733 -1.68765 0 0 0 
45 1 10.0983 7.30483 -1.37759 0 0 0 
291 1 -10.2547 8.1251 -1.37447 0 0 0 
290 1 -9.69545 8.48129 -2.09156 0 0 0 
75 1 9.22057 12.1257 -1.90473 0 0 0 
74 1 9.53201 11.4671 -1.30901 0 0 0 
1121 2 -15.6071 12.9282 -2.0006 0 0 0 
76 1 8.58688 12.858 -1.98537 0 0 0 
78 1 7.44375 14.0511 -1.52667 0 0 0 
77 1 8.16775 13.7506 -2.19342 0 0 0 
1035 2 -5.12647 17.9028 -1.82005 0 0 0 
1165 2 4.5488 17.8199 -1.38732 0 0 0 
1196 2 -8.13236 -17.0573 -0.63935 0 0 0 
433 1 5.47415 -14.4073 -0.685991 0 0 0 
432 1 5.97188 -13.6549 -0.388347 0 0 0 
1247 2 3.82576 -12.2674 -0.825726 0 0 0 
1045 2 -17.8327 -10.0204 -0.0821363 0 0 0 
761 1 -13.0728 -10.0979 -0.039053 0 0 0 
487 1 -10.7162 -10.0263 -0.672314 0 0 0 
427 1 7.41616 -10.5591 -0.249495 0 0 0 
426 1 8.17171 -10.9264 -0.744296 0 0 0 
760 1 -13.1524 -9.999 -0.98203 0 0 0 
423 1 10.0361 -9.65799 -1.01022 0 0 0 
947 1 12.1157 -9.09617 -0.96943 0 0 0 
948 1 12.5676 -9.68263 -0.293248 0 0 0 
420 1 9.46556 -6.94682 -0.986955 0 0 0 
1025 2 -15.7007 -5.57694 -0.89689 0 0 0 
1161 2 -13.1137 -6.65785 -0.749126 0 0 0 
419 1 8.64114 -6.43971 -0.891323 0 0 0 
418 1 7.90907 -5.78198 -0.949688 0 0 0 
1227 2 9.90315 -6.62049 -0.141829 0 0 0 
828 1 13.8904 -5.85128 -0.401458 0 0 0 
456 1 2.38123 -5.43094 -0.655869 0 0 0 
417 1 7.30463 -5.1666 -0.5115 0 0 0 
829 1 13.939 -5.12237 -0.992804 0 0 0 
349 1 -2.41758 -3.81264 -0.192689 0 0 0 
416 1 6.92817 -4.23864 -0.290027 0 0 0 
172 1 -9.15222 -3.2241 -1.03872 0 0 0 
171 1 -8.26633 -2.91198 -0.85117 0 0 0 
170 1 -7.69813 -2.39245 -0.292912 0 0 0 
1291 2 -3.52241 -2.96224 -0.297002 0 0 0 
348 1 -1.68831 -3.12296 -0.384421 0 0 0 
347 1 -0.66929 -3.25148 -0.337727 0 0 0 
206 1 0.193107 -2.30473 -0.596422 0 0 0 
414 1 6.36598 -2.66711 -0.211315 0 0 0 
415 1 7.03968 -3.32055 -0.464445 0 0 0 
169 1 -7.03514 -1.69994 -0.0983708 0 0 0 
205 1 -0.304515 -1.49093 -0.312834 0 0 0 
307 1 -4.18904 -0.936177 -0.0746019 0 0 0 
198 1 3.10228 -0.492143 -0.786085 0 0 0 
305 1 -5.62021 0.431029 -0.151719 0 0 0 
304 1 -6.43547 0.900359 -0.297702 0 0 0 
199 1 2.62729 0.128399 -0.208654 0 0 0 
301 1 -9.04061 1.80897 -0.593788 0 0 0 
302 1 -8.07017 1.62727 -0.814379 0 0 0 
303 1 -7.08912 1.47277 -0.652343 0 0 0 
299 1 -10.2831 3.02962 -0.0506279 0 0 0 
300 1 -9.91904 2.26164 -0.52217 0 0 0 
627 1 5.52511 5.05113 -0.928988 0 0 0 
628 1 5.09292 4.49813 -0.259889 0 0 0 
648 1 7.66795 4.93948 -0.902613 0 0 0 
47 1 10.2216 6.07549 -0.0706773 0 0 0 
1222 2 8.51588 7.72082 -0.470718 0 0 0 
46 1 9.91587 6.91116 -0.46914 0 0 0 
292 1 -10.162 8.17378 -0.41842 0 0 0 
1182 2 -6.1563 11.0862 -0.795016 0 0 0 
72 1 9.39258 10.0836 -0.0942007 0 0 0 