ITEM: TIMESTEP
10000000
ITEM: NUMBER OF ATOMS
2000
ITEM: BOX BOUNDS pp pp pp
-3.0000000000000000e+01 3.0000000000000000e+01
-3.0000000000000000e+01 3.0000000000000000e+01
-3.0000000000000000e+01 3.0000000000000000e+01
ITEM: ATOMS id type x y z ix iy iz 
1223 2 -11.0449 -9.02484 -18.0337 0 0 0 
1171 2 7.22952 11.2739 -17.9771 0 0 0 
1405 2 -11.3606 -11.9478 -16.6906 0 0 0 
1961 2 9.79193 -5.75912 -16.774 0 0 0 
983 1 9.17339 -3.60195 -16.8234 0 0 0 
984 1 8.87988 -2.66749 -17.1678 0 0 0 
1641 2 10.4854 -2.43821 -17.0423 0 0 0 
1238 2 -11.6779 -1.29108 -17.3613 0 0 0 
985 1 9.16777 -1.73011 -17.3387 0 0 0 
986 1 9.67816 -1.10217 -16.7915 0 0 0 
502 1 10.5477 -0.566993 -17.405 0 0 0 
501 1 11.4626 -0.833442 -17.2573 0 0 0 
1219 2 -12.5077 0.145156 -17.6328 0 0 0 
504 1 9.56203 1.06805 -17.1653 0 0 0 
503 1 10.0829 0.224695 -17.2309 0 0 0 
1816 2 16.4899 1.27729 -17.7178 0 0 0 
1234 2 -1.27279 3.80845 -17.2233 0 0 0 
203 1 9.655 4.20518 -16.7638 0 0 0 
1979 2 -0.140154 6.3576 -17.1344 0 0 0 
1619 2 10.4066 7.74905 -17.5531 0 0 0 
1547 2 -14.4812 9.10939 -17.2067 0 0 0 
1821 2 10.9709 10.4388 -17.3115 0 0 0 
1031 2 11.7754 11.2766 -16.7387 0 0 0 
1464 2 0.341863 17.7902 -17.133 0 0 0 
1163 2 -7.60905 -10.1858 -16.6466 0 0 0 
1517 2 -3.72466 -10.2704 -16.2613 0 0 0 
173 1 10.208 -7.92205 -16.3529 0 0 0 
172 1 10.6014 -8.79288 -16.0776 0 0 0 
1841 2 7.5821 -7.04959 -16.4771 0 0 0 
174 1 10.3071 -6.96405 -16.4508 0 0 0 
1058 2 9.03603 -5.80808 -16.0303 0 0 0 
175 1 10.0232 -6.25041 -15.8981 0 0 0 
569 1 11.7968 -6.5624 -15.5782 0 0 0 
981 1 10.003 -4.94955 -15.7613 0 0 0 
675 1 4.78645 -3.51851 -15.6689 0 0 0 
982 1 9.5404 -4.40909 -16.3409 0 0 0 
1761 2 12.5785 -4.00481 -16.4486 0 0 0 
1285 2 10.6527 -2.88766 -16.1045 0 0 0 
1485 2 -4.35503 -1.63751 -16.5609 0 0 0 
1438 2 8.13864 -1.68951 -15.8364 0 0 0 
500 1 11.5293 -1.53487 -16.5736 0 0 0 
499 1 11.5703 -1.24496 -15.6175 0 0 0 
987 1 9.74634 -0.737653 -15.8728 0 0 0 
1544 2 10.7657 -0.314221 -16.2973 0 0 0 
1156 2 11.9304 -0.348071 -16.2945 0 0 0 
1846 2 8.62181 0.826344 -15.7281 0 0 0 
1008 2 9.55807 0.491874 -16.1586 0 0 0 
505 1 9.38345 1.72826 -16.4752 0 0 0 
506 1 9.18033 2.55851 -16.0012 0 0 0 
1478 2 -0.986424 4.01559 -15.7691 0 0 0 
202 1 10.3991 3.67332 -16.461 0 0 0 
201 1 11.0702 3.60143 -15.7339 0 0 0 
204 1 9.72155 5.12114 -16.5284 0 0 0 
1254 2 13.7575 4.9194 -15.8915 0 0 0 
205 1 9.4413 5.72278 -15.7914 0 0 0 
1591 2 -17.5477 8.49598 -16.3301 0 0 0 
1477 2 -17.5212 13.8207 -16.4683 0 0 0 
1081 2 -0.294531 14.7466 -16.4045 0 0 0 
1507 2 -1.17068 17.7434 -16.0477 0 0 0 
1025 2 -2.96547 -13.5498 -15.0163 0 0 0 
1744 2 -13.5381 -11.7695 -14.9376 0 0 0 
1075 2 -9.64799 -10.8707 -14.9441 0 0 0 
1130 2 -1.15103 -9.26215 -14.8721 0 0 0 
74 1 7.68878 -9.54099 -14.4671 0 0 0 
170 1 9.3886 -9.39473 -14.7713 0 0 0 
171 1 10.1335 -9.23502 -15.4041 0 0 0 
648 1 11.0465 -8.91312 -14.7882 0 0 0 
1378 2 13.1641 -9.03712 -14.7476 0 0 0 
1385 2 1.8712 -8.82229 -15.4352 0 0 0 
77 1 6.41858 -8.10632 -14.5324 0 0 0 
75 1 7.50803 -8.86833 -15.2166 0 0 0 
76 1 7.05285 -7.95555 -15.2188 0 0 0 
1516 2 10.8229 -7.872 -15.3086 0 0 0 
649 1 11.8248 -8.84012 -15.4858 0 0 0 
650 1 12.5755 -8.37447 -15.1758 0 0 0 
651 1 13.5416 -8.02977 -15.1267 0 0 0 
653 1 15.1216 -8.86937 -14.7239 0 0 0 
652 1 14.4445 -8.34659 -15.2187 0 0 0 
1983 2 6.50108 -6.9819 -14.558 0 0 0 
1033 2 10.7617 -6.86053 -15.4402 0 0 0 
1551 2 10.1052 -6.84443 -14.6196 0 0 0 
570 1 11.5844 -7.31698 -14.9959 0 0 0 
1174 2 -7.36801 -5.59568 -15.0228 0 0 0 
178 1 7.67558 -6.18919 -14.7331 0 0 0 
177 1 8.41921 -6.48785 -15.2477 0 0 0 
176 1 9.36072 -6.425 -15.2115 0 0 0 
568 1 12.0382 -5.6564 -15.2898 0 0 0 
979 1 11.2744 -5.96484 -14.7402 0 0 0 
127 1 13.532 -5.74178 -14.8244 0 0 0 
1528 2 16.3719 -6.34533 -15.3383 0 0 0 
1860 2 4.51306 -4.67095 -15.4191 0 0 0 
1679 2 6.23759 -4.61399 -14.7891 0 0 0 
1453 2 9.42374 -5.26892 -14.9025 0 0 0 
980 1 10.4466 -5.51352 -15.1245 0 0 0 
567 1 12.3209 -4.7017 -15.4663 0 0 0 
128 1 13.1823 -4.88952 -14.6688 0 0 0 
676 1 4.15404 -3.65337 -15.0363 0 0 0 
673 1 6.23584 -3.5627 -14.7959 0 0 0 
1798 2 7.7035 -3.54498 -14.585 0 0 0 
163 1 9.64426 -4.21625 -14.595 0 0 0 
162 1 10.1437 -3.49391 -14.9691 0 0 0 
566 1 12.1562 -3.79342 -15.3863 0 0 0 
1908 2 4.54998 -2.70095 -14.8687 0 0 0 
674 1 5.71674 -3.21985 -15.5474 0 0 0 
1113 2 7.66542 -2.49527 -15.5203 0 0 0 
161 1 10.3119 -2.49541 -15.0763 0 0 0 
1996 2 11.3555 -3.27555 -14.8849 0 0 0 
1858 2 11.8219 -2.26791 -14.7451 0 0 0 
565 1 12.6054 -2.9747 -15.3027 0 0 0 
150 1 7.18028 -1.45509 -14.7151 0 0 0 
160 1 10.865 -1.92524 -14.5689 0 0 0 
564 1 12.7632 -1.99471 -15.1207 0 0 0 
563 1 13.4158 -1.58355 -14.5688 0 0 0 
1869 2 3.56818 -0.749923 -15.3536 0 0 0 
1042 2 3.9488 -0.11624 -14.6461 0 0 0 
988 1 9.75168 -0.131388 -15.0787 0 0 0 
1862 2 9.99034 -1.08694 -14.6335 0 0 0 
1515 2 9.05383 -1.05931 -15.193 0 0 0 
498 1 11.4319 -0.365468 -15.2915 0 0 0 
1897 2 -0.598878 0.483076 -15.4294 0 0 0 
989 1 8.90832 0.0931521 -14.7413 0 0 0 
497 1 11.8382 0.310836 -14.7272 0 0 0 
1412 2 9.90587 2.15176 -15.2994 0 0 0 
507 1 8.57002 3.06118 -15.5163 0 0 0 
1352 2 10.625 2.4644 -14.6037 0 0 0 
200 1 11.6984 3.01824 -15.21 0 0 0 
199 1 12.5868 2.52617 -15.3078 0 0 0 
198 1 13.3039 2.56856 -14.6669 0 0 0 
997 1 4.59935 3.49548 -14.5778 0 0 0 
1059 2 5.69823 3.99379 -15.3181 0 0 0 
508 1 8.05848 3.77218 -15.1057 0 0 0 
509 1 8.49446 4.39303 -14.447 0 0 0 
1391 2 8.92315 3.41297 -14.5434 0 0 0 
1729 2 12.7656 3.48692 -14.7045 0 0 0 
1989 2 10.0195 4.54054 -14.5488 0 0 0 
1205 2 4.48182 6.61069 -14.8287 0 0 0 
206 1 9.7861 6.04332 -14.9574 0 0 0 
1020 2 11.4163 5.72585 -14.9587 0 0 0 
1044 2 6.03167 10.4827 -14.9105 0 0 0 
1844 2 6.35538 12.0688 -15.1843 0 0 0 
1553 2 -16.197 14.0058 -14.916 0 0 0 
1100 2 -17.6138 -15.194 -13.6762 0 0 0 
1098 2 -9.33882 -15.3358 -13.6377 0 0 0 
1340 2 -9.49118 -13.7149 -13.4609 0 0 0 
1538 2 9.13172 -14.4316 -13.4148 0 0 0 
1831 2 -16.2002 -11.6693 -13.5968 0 0 0 
71 1 6.47239 -11.9204 -13.7718 0 0 0 
72 1 7.16171 -11.2164 -13.5592 0 0 0 
73 1 7.29953 -10.281 -13.9452 0 0 0 
169 1 8.65951 -9.04426 -14.2906 0 0 0 
654 1 15.3969 -8.96273 -13.8391 0 0 0 
78 1 5.98443 -8.28723 -13.6959 0 0 0 
1973 2 7.73758 -8.2675 -14.2783 0 0 0 
168 1 8.90497 -8.19686 -13.8541 0 0 0 
647 1 10.503 -8.26417 -14.4075 0 0 0 
571 1 12.0393 -7.80339 -14.2386 0 0 0 
572 1 12.7128 -8.19541 -13.7083 0 0 0 
1470 2 13.7647 -8.56258 -13.6025 0 0 0 
124 1 14.6938 -7.85251 -13.4138 0 0 0 
1041 2 6.79574 -6.67366 -13.6123 0 0 0 
1173 2 7.97083 -7.0618 -13.9947 0 0 0 
167 1 9.04664 -7.30751 -13.5047 0 0 0 
646 1 10.8209 -7.49189 -13.9736 0 0 0 
1802 2 10.2003 -6.96655 -13.337 0 0 0 
1290 2 13.1453 -7.50318 -14.3506 0 0 0 
1854 2 12.8663 -6.96912 -13.4898 0 0 0 
125 1 14.1406 -7.25469 -13.885 0 0 0 
1204 2 2.40308 -6.2628 -13.6506 0 0 0 
179 1 7.39148 -5.85232 -13.845 0 0 0 
1974 2 8.8104 -6.44663 -14.2146 0 0 0 
1084 2 10.0011 -5.65934 -14.1115 0 0 0 
978 1 11.7872 -6.01406 -13.8887 0 0 0 
126 1 13.6888 -6.5375 -14.3081 0 0 0 
1653 2 14.9473 -6.53162 -13.7422 0 0 0 
744 1 7.40306 -4.80172 -13.7041 0 0 0 
1187 2 8.37879 -5.39599 -14.1462 0 0 0 
164 1 9.31396 -4.64194 -13.8213 0 0 0 
165 1 9.34036 -5.47145 -13.3657 0 0 0 
132 1 10.5318 -5.05144 -13.4297 0 0 0 
1807 2 12.0467 -4.9403 -14.4157 0 0 0 
677 1 4.00651 -3.34634 -14.0751 0 0 0 
742 1 5.70564 -4.08497 -13.3543 0 0 0 
745 1 8.16649 -4.20053 -13.9546 0 0 0 
746 1 8.6704 -3.36165 -13.9807 0 0 0 
131 1 10.9323 -4.39643 -13.991 0 0 0 
1723 2 10.1589 -3.94887 -13.4821 0 0 0 
130 1 11.8458 -3.87861 -14.0821 0 0 0 
129 1 12.7464 -4.10509 -14.2884 0 0 0 
190 1 15.1002 -3.5176 -13.7252 0 0 0 
1181 2 4.31391 -2.32984 -13.5739 0 0 0 
1270 2 5.34322 -3.28974 -14.1572 0 0 0 
672 1 6.3286 -3.27686 -13.8058 0 0 0 
1239 2 7.84372 -2.88785 -13.4362 0 0 0 
152 1 8.54928 -2.32938 -14.0491 0 0 0 
1110 2 9.9334 -2.37562 -14.1359 0 0 0 
1434 2 10.6326 -3.1904 -14.0465 0 0 0 
963 1 11.9959 -2.38993 -13.6544 0 0 0 
1613 2 12.7017 -3.14124 -14.2154 0 0 0 
191 1 15.4169 -2.65722 -14.1745 0 0 0 
1562 2 -16.1549 -1.70619 -13.8958 0 0 0 
1278 2 -12.6081 -1.58122 -13.393 0 0 0 
148 1 5.33858 -1.61221 -14.1055 0 0 0 
149 1 6.32371 -1.69731 -14.2908 0 0 0 
151 1 7.68054 -2.17509 -14.4077 0 0 0 
153 1 9.09191 -1.57312 -14.1154 0 0 0 
159 1 10.7136 -1.22255 -13.9103 0 0 0 
1182 2 12.0144 -1.39063 -14.03 0 0 0 
962 1 11.2413 -1.85223 -13.3808 0 0 0 
965 1 13.4696 -2.09432 -13.5816 0 0 0 
1878 2 14.4384 -1.49808 -13.8057 0 0 0 
192 1 15.4535 -1.76954 -13.8775 0 0 0 
993 1 5.371 -0.193931 -14.2038 0 0 0 
992 1 6.3489 -0.345629 -14.2749 0 0 0 
1224 2 6.78406 -0.990584 -13.4649 0 0 0 
154 1 8.87385 -0.890875 -13.4925 0 0 0 
1542 2 10.396 -0.050831 -14.0183 0 0 0 
1648 2 11.4713 -0.526177 -14.1498 0 0 0 
562 1 13.2522 -0.653604 -14.4377 0 0 0 
1488 2 13.0488 -0.666446 -13.4517 0 0 0 
1295 2 15.1458 -0.708305 -14.2446 0 0 0 
1874 2 3.72959 0.408772 -13.7654 0 0 0 
994 1 5.20407 0.724025 -14.1761 0 0 0 
1590 2 6.42333 0.89754 -13.6063 0 0 0 
991 1 7.17111 0.126771 -14.0463 0 0 0 
990 1 8.12633 0.0220956 -14.2092 0 0 0 
1540 2 10.7642 1.0737 -14.1326 0 0 0 
496 1 11.8086 0.909926 -13.9567 0 0 0 
561 1 12.986 0.191733 -14.1614 0 0 0 
195 1 14.3854 0.33967 -13.4768 0 0 0 
1035 2 2.27456 1.23191 -14.4202 0 0 0 
995 1 5.11289 1.69902 -14.2079 0 0 0 
547 1 9.78759 2.08531 -13.8811 0 0 0 
1959 2 11.6246 2.1087 -13.5734 0 0 0 
1815 2 12.8461 1.21622 -13.9038 0 0 0 
196 1 13.9545 1.19632 -13.494 0 0 0 
197 1 13.7595 1.94485 -14.1015 0 0 0 
996 1 4.85001 2.60422 -14.4099 0 0 0 
545 1 8.50934 3.0478 -13.5564 0 0 0 
546 1 8.92686 2.39687 -14.1269 0 0 0 
548 1 10.6624 2.25513 -13.5719 0 0 0 
549 1 11.0976 3.02799 -13.8311 0 0 0 
1169 2 12.6178 2.64533 -13.5843 0 0 0 
1315 2 -2.10533 4.30803 -13.6942 0 0 0 
998 1 4.33457 4.08569 -13.8599 0 0 0 
550 1 11.8212 3.66967 -14.0948 0 0 0 
551 1 12.6157 4.05304 -13.6828 0 0 0 
1573 2 13.6571 4.29423 -14.2629 0 0 0 
552 1 13.3622 3.62599 -13.419 0 0 0 
1345 2 5.51303 4.53136 -14.2923 0 0 0 
510 1 9.01683 5.04779 -13.9479 0 0 0 
1669 2 10.3458 5.22331 -13.4186 0 0 0 
1782 2 11.2859 4.83835 -14.3722 0 0 0 
1481 2 -10.6213 6.18506 -14.293 0 0 0 
1787 2 4.18409 5.83172 -14.0164 0 0 0 
207 1 10.481 5.71586 -14.2724 0 0 0 
208 1 11.3516 5.91642 -13.9414 0 0 0 
209 1 12.2693 6.23113 -13.8177 0 0 0 
210 1 13.1012 6.10585 -13.3986 0 0 0 
1984 2 -13.6809 7.56965 -13.7342 0 0 0 
1298 2 14.3741 11.2428 -13.9884 0 0 0 
1911 2 0.266827 12.5353 -13.7945 0 0 0 
1712 2 15.4102 14.4692 -14.4054 0 0 0 
1904 2 11.3663 17.7214 -13.5116 0 0 0 
1638 2 7.85707 -17.7152 -13.0992 0 0 0 
1896 2 -8.56225 -15.7279 -12.9166 0 0 0 
68 1 5.47337 -14.0576 -12.246 0 0 0 
69 1 5.784 -13.4414 -12.8838 0 0 0 
1443 2 -10.3462 -12.3217 -12.3448 0 0 0 
1774 2 -4.34834 -12.9007 -12.7581 0 0 0 
70 1 6.15925 -12.6884 -13.3061 0 0 0 
1870 2 12.3454 -12.2714 -12.7394 0 0 0 
1052 2 6.87747 -10.3903 -12.3682 0 0 0 
628 1 8.46764 -10.1583 -12.233 0 0 0 
627 1 9.38711 -10.5784 -12.3446 0 0 0 
1441 2 11.0912 -10.5149 -12.6116 0 0 0 
658 1 12.5942 -10.2781 -12.8702 0 0 0 
1370 2 -11.513 -9.04948 -12.3074 0 0 0 
1716 2 8.1156 -9.8203 -13.2281 0 0 0 
1632 2 11.5139 -9.3584 -12.8387 0 0 0 
657 1 13.3576 -9.83984 -13.1992 0 0 0 
656 1 14.1388 -9.45371 -12.8735 0 0 0 
655 1 15.0378 -9.00935 -12.892 0 0 0 
80 1 4.3367 -7.84761 -13.2216 0 0 0 
79 1 5.16367 -8.30185 -13.147 0 0 0 
1634 2 8.55696 -8.6342 -12.9688 0 0 0 
1618 2 9.55489 -8.5986 -12.3982 0 0 0 
1735 2 11.8846 -8.25244 -12.9489 0 0 0 
573 1 12.9591 -8.5475 -12.8136 0 0 0 
81 1 3.43962 -7.56649 -12.723 0 0 0 
39 1 5.77857 -7.11011 -12.323 0 0 0 
40 1 6.769 -7.26719 -12.2796 0 0 0 
1468 2 8.61109 -7.73976 -12.2379 0 0 0 
645 1 11.2065 -7.00891 -13.2558 0 0 0 
644 1 11.4728 -7.01971 -12.3447 0 0 0 
1947 2 13.6642 -7.73706 -12.8097 0 0 0 
123 1 14.6906 -7.22159 -12.5715 0 0 0 
1401 2 3.99152 -6.36249 -12.2883 0 0 0 
38 1 5.15792 -6.36143 -12.2266 0 0 0 
180 1 7.72751 -5.93837 -12.9393 0 0 0 
181 1 8.31211 -6.4874 -12.3911 0 0 0 
166 1 9.16106 -6.40846 -13.2709 0 0 0 
1611 2 8.97166 -5.69999 -12.4052 0 0 0 
977 1 12.4745 -5.9732 -13.2311 0 0 0 
976 1 12.7249 -6.45193 -12.3812 0 0 0 
1461 2 2.69829 -5.43845 -12.6642 0 0 0 
740 1 4.03541 -4.59559 -12.5969 0 0 0 
743 1 6.58722 -4.47813 -13.3153 0 0 0 
1404 2 6.73312 -5.31731 -12.6401 0 0 0 
133 1 10.1096 -4.73434 -12.6418 0 0 0 
1871 2 11.8445 -4.96352 -13.3076 0 0 0 
1080 2 13.9572 -5.45202 -12.4055 0 0 0 
679 1 3.36379 -3.5248 -12.3328 0 0 0 
741 1 4.75643 -4.2704 -13.2126 0 0 0 
670 1 6.94594 -3.92808 -12.2555 0 0 0 
1465 2 8.63688 -4.09529 -13.0089 0 0 0 
134 1 9.51748 -3.98305 -12.4999 0 0 0 
186 1 12.0536 -4.3796 -12.233 0 0 0 
1738 2 11.1279 -3.9261 -12.7702 0 0 0 
187 1 12.9505 -4.40879 -12.4675 0 0 0 
188 1 13.8891 -4.29969 -12.536 0 0 0 
189 1 14.641 -4.10118 -13.1266 0 0 0 
678 1 3.57 -3.16081 -13.2412 0 0 0 
1252 2 3.98959 -2.65479 -12.4243 0 0 0 
1535 2 4.7692 -3.21024 -13.1631 0 0 0 
146 1 4.96976 -2.27557 -12.3889 0 0 0 
1330 2 5.87085 -2.84467 -12.973 0 0 0 
671 1 6.77652 -3.2568 -12.9662 0 0 0 
1466 2 8.61701 -2.63969 -12.2921 0 0 0 
747 1 9.18057 -3.16464 -13.2179 0 0 0 
748 1 10.1102 -2.97216 -12.9122 0 0 0 
1550 2 11.9011 -3.33098 -13.1396 0 0 0 
1026 2 12.6279 -3.29033 -12.2774 0 0 0 
964 1 12.836 -2.63761 -13.1671 0 0 0 
1525 2 14.6513 -2.809 -13.0642 0 0 0 
1980 2 -12.527 -1.61523 -12.3172 0 0 0 
147 1 5.26625 -2.12045 -13.3217 0 0 0 
1183 2 5.89517 -1.28344 -12.9479 0 0 0 
1913 2 6.79029 -2.0478 -13.2389 0 0 0 
26 1 7.2039 -1.32066 -12.5154 0 0 0 
1390 2 7.87551 -1.7887 -13.2772 0 0 0 
1451 2 9.42007 -1.93058 -12.8112 0 0 0 
1945 2 10.4278 -1.54419 -12.7525 0 0 0 
961 1 11.6761 -1.16219 -12.8998 0 0 0 
1360 2 11.8873 -2.16309 -12.4936 0 0 0 
1350 2 12.903 -1.71832 -12.4847 0 0 0 
966 1 13.8052 -1.31307 -13.0344 0 0 0 
193 1 15.2944 -1.23664 -13.1343 0 0 0 
1861 2 2.00007 -0.355072 -12.5614 0 0 0 
345 1 2.92036 -0.698783 -12.5722 0 0 0 
344 1 3.69688 -0.513618 -13.0827 0 0 0 
343 1 4.64109 -0.404727 -13.1776 0 0 0 
1114 2 7.62181 -0.398195 -13.2403 0 0 0 
25 1 6.71281 -0.466864 -12.4589 0 0 0 
155 1 8.83327 -0.0806351 -12.9063 0 0 0 
1775 2 8.16158 -1.06609 -12.4957 0 0 0 
1519 2 9.88426 -0.695164 -13.1977 0 0 0 
158 1 10.8737 -0.61045 -13.2425 0 0 0 
967 1 14.3851 -0.754583 -12.4634 0 0 0 
194 1 15.0818 -0.284913 -13.1078 0 0 0 
342 1 4.84202 0.309674 -12.5564 0 0 0 
1724 2 5.84489 0.018595 -13.1732 0 0 0 
1672 2 7.90243 0.728241 -12.2672 0 0 0 
156 1 9.58739 0.459894 -13.0015 0 0 0 
157 1 10.5272 0.237003 -12.9713 0 0 0 
495 1 11.4683 1.09775 -13.1461 0 0 0 
1665 2 11.6638 0.0558866 -12.8058 0 0 0 
560 1 12.4943 0.305862 -13.3289 0 0 0 
559 1 12.6044 0.492583 -12.4149 0 0 0 
1244 2 13.6099 0.188947 -12.6791 0 0 0 
1277 2 2.60962 1.84258 -13.3025 0 0 0 
1741 2 4.98314 2.2079 -13.2602 0 0 0 
516 1 8.84215 1.81232 -12.315 0 0 0 
1944 2 10.2986 1.24545 -13.044 0 0 0 
514 1 10.2096 2.17159 -12.4985 0 0 0 
494 1 11.423 1.81374 -12.4267 0 0 0 
1751 2 12.5415 1.65544 -12.8836 0 0 0 
1362 2 14.1985 1.9967 -12.7198 0 0 0 
544 1 8.05913 3.28905 -12.7171 0 0 0 
1249 2 9.35729 3.0359 -12.6104 0 0 0 
513 1 10.4827 3.09671 -12.653 0 0 0 
1229 2 11.6934 2.99204 -12.8671 0 0 0 
553 1 13.6194 2.99949 -12.6921 0 0 0 
999 1 5.04303 3.93397 -13.1865 0 0 0 
1000 1 5.93244 4.35795 -12.8331 0 0 0 
543 1 7.54583 4.0653 -12.6297 0 0 0 
512 1 10.1183 3.80189 -13.2264 0 0 0 
1013 2 11.3049 3.92319 -13.1456 0 0 0 
1240 2 12.5561 3.59942 -12.6501 0 0 0 
1106 2 13.8276 4.42426 -12.9264 0 0 0 
1810 2 8.46244 5.21827 -12.4402 0 0 0 
511 1 9.48796 4.55829 -13.3217 0 0 0 
784 1 10.7428 4.89055 -12.4747 0 0 0 
785 1 11.6786 4.56653 -12.302 0 0 0 
211 1 13.7442 5.54385 -13.0195 0 0 0 
212 1 14.3183 5.39635 -12.2601 0 0 0 
541 1 7.56548 5.65763 -12.6727 0 0 0 
540 1 8.29267 6.07881 -13.1437 0 0 0 
539 1 9.23756 6.04186 -13.1385 0 0 0 
538 1 10.17 6.20958 -13.061 0 0 0 
537 1 11.1628 6.15829 -12.8597 0 0 0 
536 1 11.7335 6.62289 -12.2894 0 0 0 
1077 2 -15.0126 8.08819 -12.3429 0 0 0 
1046 2 6.09392 9.03041 -12.8732 0 0 0 
1625 2 1.04838 13.64 -12.9676 0 0 0 
1489 2 13.463 -16.7887 -11.258 0 0 0 
1236 2 -11.0084 -14.3466 -11.3679 0 0 0 
67 1 5.93463 -13.9858 -11.4281 0 0 0 
624 1 11.0097 -12.3126 -11.2732 0 0 0 
625 1 10.6287 -11.8018 -11.9477 0 0 0 
1257 2 -0.53466 -10.1614 -11.6646 0 0 0 
630 1 7.3397 -10.3447 -11.1481 0 0 0 
1467 2 8.36927 -10.7508 -11.3914 0 0 0 
626 1 10.1084 -11.0963 -12.1744 0 0 0 
1842 2 10.2461 -10.1167 -11.6251 0 0 0 
659 1 12.1086 -10.3942 -12.0644 0 0 0 
629 1 7.63761 -9.76153 -11.8451 0 0 0 
661 1 10.741 -9.23981 -12.1202 0 0 0 
660 1 11.4142 -9.90174 -11.7977 0 0 0 
574 1 13.3013 -9.10048 -12.1419 0 0 0 
1598 2 12.3169 -9.12695 -11.8544 0 0 0 
575 1 13.2894 -9.25052 -11.1986 0 0 0 
1891 2 3.92042 -8.32043 -12.1622 0 0 0 
590 1 4.62842 -8.50681 -11.1355 0 0 0 
589 1 5.36765 -8.71852 -11.6886 0 0 0 
1568 2 6.18302 -8.08346 -12.1741 0 0 0 
1161 2 6.98894 -8.14711 -11.1697 0 0 0 
1510 2 7.36977 -8.65851 -12.1439 0 0 0 
662 1 10.2508 -8.63092 -11.6366 0 0 0 
1881 2 11.3174 -8.05342 -12.221 0 0 0 
1558 2 11.4223 -8.70254 -11.2114 0 0 0 
1853 2 0.270203 -6.92382 -11.339 0 0 0 
82 1 3.19687 -7.0423 -11.9988 0 0 0 
1840 2 5.28349 -7.18888 -11.1745 0 0 0 
1216 2 4.67574 -7.38245 -12.0436 0 0 0 
41 1 7.57158 -7.65507 -11.9325 0 0 0 
182 1 9.10356 -6.7886 -12.0115 0 0 0 
1705 2 10.2502 -7.14477 -11.5614 0 0 0 
643 1 12.02 -7.22338 -11.5843 0 0 0 
975 1 13.2929 -6.69854 -11.6612 0 0 0 
122 1 14.507 -6.72277 -11.6957 0 0 0 
1884 2 -13.1161 -5.95877 -11.1531 0 0 0 
83 1 2.94239 -6.47303 -11.2988 0 0 0 
37 1 4.6243 -6.23093 -11.4831 0 0 0 
1791 2 6.128 -6.37702 -11.4905 0 0 0 
1545 2 7.24651 -6.19576 -11.9283 0 0 0 
183 1 9.73375 -5.99001 -11.7792 0 0 0 
974 1 13.7137 -5.90217 -11.3802 0 0 0 
121 1 15.3233 -6.30352 -11.5999 0 0 0 
120 1 16.1158 -5.87004 -11.4349 0 0 0 
737 1 1.67861 -5.2304 -11.5823 0 0 0 
738 1 2.6488 -5.17463 -11.6216 0 0 0 
739 1 3.51924 -5.07915 -11.9946 0 0 0 
1559 2 4.65621 -5.19871 -11.6237 0 0 0 
1866 2 5.72768 -5.43526 -11.2999 0 0 0 
937 1 6.86894 -5.08375 -11.5042 0 0 0 
668 1 8.24422 -4.73688 -11.3802 0 0 0 
184 1 10.3971 -5.23346 -11.6524 0 0 0 
185 1 11.1946 -4.79597 -12.0289 0 0 0 
973 1 14.2769 -5.14428 -11.336 0 0 0 
119 1 16.6015 -5.08707 -11.1619 0 0 0 
680 1 3.19781 -3.49411 -11.4383 0 0 0 
933 1 4.29697 -3.64144 -11.1139 0 0 0 
935 1 5.55132 -3.87312 -11.9147 0 0 0 
934 1 4.57708 -3.78255 -12.0389 0 0 0 
936 1 6.20361 -4.37501 -11.5034 0 0 0 
1747 2 7.26276 -4.168 -11.1658 0 0 0 
669 1 7.8459 -4.37453 -12.1512 0 0 0 
1047 2 8.65459 -3.76297 -11.6039 0 0 0 
1337 2 10.4288 -3.94162 -11.7151 0 0 0 
1502 2 11.4917 -3.97245 -11.2848 0 0 0 
972 1 14.4765 -4.22783 -11.5686 0 0 0 
971 1 14.7862 -3.40925 -11.1728 0 0 0 
1003 2 2.96182 -2.61747 -12.1285 0 0 0 
1082 2 2.25289 -2.52267 -11.1987 0 0 0 
1847 2 5.38852 -2.91397 -11.2533 0 0 0 
1386 2 6.53359 -2.97224 -11.9219 0 0 0 
135 1 9.57127 -3.1682 -11.8968 0 0 0 
749 1 10.7884 -2.85759 -12.2183 0 0 0 
830 1 10.4552 -2.43625 -11.1345 0 0 0 
750 1 11.5318 -2.86445 -11.6085 0 0 0 
751 1 12.3837 -3.14208 -11.2214 0 0 0 
1933 2 13.4332 -2.88904 -11.6389 0 0 0 
970 1 15.1172 -2.50069 -11.2075 0 0 0 
347 1 1.92018 -1.5806 -11.1826 0 0 0 
346 1 2.51839 -1.11793 -11.8058 0 0 0 
145 1 5.084 -1.84522 -11.551 0 0 0 
1599 2 5.94216 -2.13745 -12.2049 0 0 0 
27 1 7.12618 -1.9517 -11.8186 0 0 0 
1095 2 9.11306 -1.7707 -11.6399 0 0 0 
831 1 10.136 -1.72425 -11.6053 0 0 0 
1323 2 11.423 -1.8234 -11.4542 0 0 0 
1566 2 14.2747 -1.86074 -11.8681 0 0 0 
1698 2 17.0954 -1.50921 -11.9855 0 0 0 
1134 2 -12.6449 -0.993852 -11.3881 0 0 0 
1808 2 1.90864 -0.433258 -11.2534 0 0 0 
1713 2 5.61479 -1.02298 -11.4416 0 0 0 
834 1 8.26247 -0.220411 -11.221 0 0 0 
833 1 8.91129 -0.427018 -11.9526 0 0 0 
832 1 9.61082 -1.02968 -12.135 0 0 0 
1220 2 10.6348 -0.702547 -12.1393 0 0 0 
960 1 11.917 -0.842633 -12.015 0 0 0 
959 1 11.6496 -0.468811 -11.2206 0 0 0 
1210 2 12.9051 -0.587485 -12.1873 0 0 0 
968 1 14.6511 -0.959244 -11.5021 0 0 0 
341 1 4.32286 0.863956 -12.0121 0 0 0 
24 1 6.05864 0.143356 -11.9792 0 0 0 
1366 2 8.89211 0.754267 -11.2166 0 0 0 
1886 2 9.96249 0.0409266 -11.8174 0 0 0 
558 1 12.6888 0.452791 -11.4507 0 0 0 
1452 2 13.5208 1.05328 -12.2219 0 0 0 
1397 2 13.636 0.198026 -11.3284 0 0 0 
340 1 3.7173 1.55314 -11.7257 0 0 0 
1623 2 5.29842 1.36072 -11.5176 0 0 0 
515 1 9.68753 1.38902 -12.1488 0 0 0 
1458 2 12.4965 1.39676 -11.8633 0 0 0 
554 1 13.2907 2.19755 -12.1894 0 0 0 
555 1 13.4867 1.8753 -11.3655 0 0 0 
518 1 7.92162 3.13726 -11.5715 0 0 0 
517 1 8.19475 2.49046 -12.1872 0 0 0 
1922 2 9.48033 2.29757 -11.6556 0 0 0 
493 1 11.7335 2.28677 -11.6272 0 0 0 
1631 2 11.4932 3.27394 -11.8913 0 0 0 
1762 2 12.6189 3.11127 -11.7971 0 0 0 
789 1 14.3569 2.57975 -11.3515 0 0 0 
1873 2 15.696 2.71797 -11.3675 0 0 0 
1202 2 8.74512 3.76189 -11.1228 0 0 0 
1119 2 8.64544 4.01699 -12.1297 0 0 0 
1764 2 9.84957 3.75295 -11.774 0 0 0 
418 1 10.5023 3.34211 -11.1228 0 0 0 
787 1 13.2457 3.85834 -11.5087 0 0 0 
786 1 12.3048 4.14468 -11.7035 0 0 0 
788 1 14.225 3.58063 -11.5077 0 0 0 
411 1 15.1675 4.11116 -11.7684 0 0 0 
410 1 16.0433 3.79693 -11.7413 0 0 0 
409 1 16.6881 3.33517 -11.1558 0 0 0 
1736 2 0.0674719 5.19019 -11.3178 0 0 0 
542 1 7.40632 4.87838 -12.0936 0 0 0 
783 1 9.86339 4.87629 -12.0483 0 0 0 
782 1 8.98962 4.87252 -11.6074 0 0 0 
1043 2 10.6645 5.02153 -11.2606 0 0 0 
1153 2 13.3903 4.99891 -11.8483 0 0 0 
412 1 14.4635 4.61343 -11.3997 0 0 0 
1159 2 13.2969 6.11383 -12.1758 0 0 0 
213 1 14.406 6.02099 -11.5208 0 0 0 
535 1 12.3628 7.26908 -12.058 0 0 0 
534 1 12.9392 7.08349 -11.2355 0 0 0 
1490 2 9.13185 8.65051 -11.4275 0 0 0 
1675 2 -14.7345 9.11721 -12.0601 0 0 0 
1365 2 10.779 10.1539 -11.7997 0 0 0 
1586 2 -3.22124 15.9354 -11.4012 0 0 0 
1512 2 13.6971 -15.0935 -10.4874 0 0 0 
66 1 6.36519 -13.9144 -10.514 0 0 0 
1389 2 16.4957 -14.2695 -10.1437 0 0 0 
623 1 11.0309 -12.7139 -10.425 0 0 0 
583 1 7.59357 -11.4171 -10.4408 0 0 0 
1902 2 9.98824 -11.1718 -10.2693 0 0 0 
631 1 7.74045 -10.1231 -10.3008 0 0 0 
584 1 6.86596 -10.825 -10.3054 0 0 0 
582 1 8.49808 -10.9351 -10.3105 0 0 0 
581 1 9.21131 -10.483 -10.7226 0 0 0 
580 1 10.012 -10.0237 -10.5396 0 0 0 
1201 2 6.04298 -9.29242 -10.9392 0 0 0 
586 1 6.4305 -8.91654 -10.0718 0 0 0 
585 1 6.7075 -9.85018 -10.1485 0 0 0 
1604 2 7.2789 -9.29684 -10.8769 0 0 0 
1482 2 8.41038 -9.62035 -10.9728 0 0 0 
579 1 10.8348 -9.48697 -10.6199 0 0 0 
576 1 12.8902 -8.91071 -10.3929 0 0 0 
1982 2 -1.08032 -8.55941 -10.5166 0 0 0 
592 1 3.03528 -8.29896 -10.2715 0 0 0 
591 1 3.85934 -8.47008 -10.6509 0 0 0 
1719 2 5.18387 -8.63588 -10.2916 0 0 0 
588 1 5.89592 -8.22799 -11.0758 0 0 0 
587 1 6.25678 -8.00202 -10.2504 0 0 0 
43 1 8.21091 -8.04471 -10.103 0 0 0 
663 1 9.79815 -8.20731 -10.8535 0 0 0 
577 1 12.1245 -8.45986 -10.0043 0 0 0 
86 1 1.07415 -7.45188 -10.0675 0 0 0 
85 1 1.05802 -6.67418 -10.6401 0 0 0 
1905 2 1.87619 -7.58281 -10.7274 0 0 0 
1221 2 2.44002 -6.85448 -10.1011 0 0 0 
1218 2 3.56859 -7.43378 -10.6562 0 0 0 
1635 2 5.00994 -7.48054 -10.1395 0 0 0 
1422 2 6.02195 -6.90453 -10.3865 0 0 0 
42 1 8.05715 -7.76585 -11.0054 0 0 0 
1640 2 8.26851 -7.02098 -10.1095 0 0 0 
664 1 9.71088 -7.4334 -10.2612 0 0 0 
642 1 11.6283 -7.50778 -10.7542 0 0 0 
1045 2 -4.70312 -6.0693 -10.84 0 0 0 
84 1 1.9328 -6.47979 -11.0007 0 0 0 
879 1 2.3428 -5.78122 -10.0375 0 0 0 
1765 2 3.45522 -5.78031 -10.6218 0 0 0 
36 1 4.88756 -6.37154 -10.595 0 0 0 
1324 2 5.97088 -5.88749 -10.4415 0 0 0 
938 1 7.03048 -5.88221 -10.9573 0 0 0 
939 1 7.0765 -6.56695 -10.2661 0 0 0 
1608 2 8.00468 -5.88896 -10.1829 0 0 0 
1925 2 7.97235 -6.5156 -11.0713 0 0 0 
1793 2 9.26879 -6.471 -10.9627 0 0 0 
666 1 9.05515 -5.81085 -10.1074 0 0 0 
1567 2 10.1173 -5.63614 -10.6227 0 0 0 
825 1 12.5446 -6.04616 -10.2721 0 0 0 
1988 2 -12.4921 -5.40613 -10.444 0 0 0 
735 1 0.628193 -4.75105 -10.0368 0 0 0 
736 1 1.15057 -5.06043 -10.75 0 0 0 
880 1 2.27493 -4.95538 -10.5662 0 0 0 
1643 2 4.65496 -5.44186 -10.1337 0 0 0 
1843 2 6.4269 -4.82239 -10.5874 0 0 0 
1696 2 7.56311 -4.97413 -10.6157 0 0 0 
1518 2 8.69994 -4.68545 -10.2048 0 0 0 
667 1 8.70006 -5.49476 -10.9959 0 0 0 
1144 2 9.72594 -4.64824 -11.0141 0 0 0 
826 1 11.8727 -5.43583 -10.5607 0 0 0 
827 1 11.7651 -4.54968 -10.1879 0 0 0 
1281 2 15.5169 -5.1656 -10.7414 0 0 0 
1456 2 -14.3063 -4.16348 -10.5085 0 0 0 
1152 2 -6.18358 -4.27082 -10.1273 0 0 0 
682 1 1.57751 -3.41194 -10.7309 0 0 0 
681 1 2.48832 -3.68393 -10.8913 0 0 0 
1127 2 3.32871 -3.40392 -10.162 0 0 0 
932 1 4.309 -3.86523 -10.2229 0 0 0 
1299 2 5.31979 -3.53551 -10.4149 0 0 0 
29 1 7.54266 -3.36633 -10.8323 0 0 0 
30 1 7.76077 -3.9293 -10.1455 0 0 0 
136 1 9.73139 -3.39909 -10.9793 0 0 0 
137 1 9.43418 -3.92942 -10.1915 0 0 0 
1952 2 10.6216 -4.33165 -10.5864 0 0 0 
753 1 13.6593 -3.61031 -10.0584 0 0 0 
1232 2 14.6007 -4.3111 -10.6326 0 0 0 
118 1 16.2696 -4.23248 -10.8647 0 0 0 
683 1 1.73391 -2.62655 -10.2241 0 0 0 
1291 2 3.14346 -2.32396 -10.2723 0 0 0 
1373 2 4.51426 -2.80594 -10.2636 0 0 0 
1284 2 6.54553 -3.20035 -10.5948 0 0 0 
28 1 7.30506 -2.44408 -10.9433 0 0 0 
1503 2 7.70067 -2.54286 -10.0314 0 0 0 
1186 2 8.86637 -2.65477 -11.0346 0 0 0 
829 1 10.7504 -3.18015 -10.574 0 0 0 
1227 2 11.6787 -2.45726 -10.6639 0 0 0 
752 1 13.1124 -2.97154 -10.6354 0 0 0 
1720 2 14.6567 -2.92404 -10.2996 0 0 0 
117 1 16.0022 -3.23704 -10.7051 0 0 0 
116 1 15.6755 -2.56132 -10.1125 0 0 0 
684 1 1.25132 -1.81071 -10.2796 0 0 0 
348 1 2.30865 -1.69495 -10.2884 0 0 0 
144 1 5.1928 -1.82075 -10.5525 0 0 0 
1408 2 6.21031 -2.1439 -10.9147 0 0 0 
1893 2 7.33735 -1.18209 -10.8872 0 0 0 
835 1 8.39258 -1.15933 -11.02 0 0 0 
836 1 8.35598 -1.8862 -10.3802 0 0 0 
1217 2 10.6829 -1.13189 -10.8008 0 0 0 
1320 2 10.776 -1.92461 -10.1957 0 0 0 
255 1 11.6363 -1.41339 -10.1733 0 0 0 
969 1 15.062 -1.59478 -10.9454 0 0 0 
685 1 1.20965 -0.832712 -10.4531 0 0 0 
22 1 6.17786 -0.112932 -10.0819 0 0 0 
1349 2 8.04377 -0.781842 -10.0308 0 0 0 
1830 2 9.27021 -0.370429 -10.9933 0 0 0 
958 1 10.7907 -0.0528604 -10.9871 0 0 0 
1601 2 11.3402 -0.428669 -10.1808 0 0 0 
1406 2 13.4778 -0.96911 -11.0816 0 0 0 
1758 2 1.50128 0.304229 -10.5724 0 0 0 
338 1 3.0318 0.371869 -10.2203 0 0 0 
339 1 3.42759 1.0896 -10.8298 0 0 0 
23 1 5.95133 0.14256 -11.0022 0 0 0 
1140 2 8.09588 0.290329 -10.0675 0 0 0 
952 1 9.21886 0.419213 -10.0877 0 0 0 
953 1 9.83511 0.946676 -10.6647 0 0 0 
957 1 10.853 0.725766 -10.3606 0 0 0 
1338 2 11.5219 0.751968 -11.109 0 0 0 
1038 2 12.167 0.384818 -10.3467 0 0 0 
557 1 13.1184 1.07602 -10.8797 0 0 0 
1646 2 14.5369 0.871034 -10.3196 0 0 0 
954 1 10.1454 1.73381 -10.1195 0 0 0 
556 1 13.6874 1.64932 -10.4528 0 0 0 
790 1 14.8755 1.93823 -10.7617 0 0 0 
791 1 15.5068 1.33535 -10.3052 0 0 0 
419 1 9.67822 3.06657 -10.7774 0 0 0 
492 1 12.1789 2.5642 -10.7045 0 0 0 
1823 2 11.2547 2.39552 -10.0727 0 0 0 
1054 2 13.1813 2.68476 -10.7739 0 0 0 
280 1 13.9884 3.07112 -10.082 0 0 0 
1430 2 17.9691 3.15426 -10.989 0 0 0 
520 1 7.67429 4.28624 -10.0147 0 0 0 
519 1 7.77866 3.56226 -10.7705 0 0 0 
1577 2 9.93435 4.30548 -10.9038 0 0 0 
420 1 9.12792 3.35097 -10.0823 0 0 0 
417 1 11.1906 3.93339 -10.8038 0 0 0 
1784 2 12.3274 3.68373 -10.8323 0 0 0 
1040 2 13.3529 3.86547 -10.2709 0 0 0 
279 1 14.4007 3.86008 -10.3213 0 0 0 
1966 2 15.8786 3.39302 -10.557 0 0 0 
408 1 16.9855 3.56542 -10.2573 0 0 0 
1137 2 6.64239 4.56412 -10.4196 0 0 0 
781 1 8.86159 4.81781 -10.6632 0 0 0 
780 1 9.53433 4.64814 -10.0279 0 0 0 
416 1 11.4885 4.87411 -10.4813 0 0 0 
414 1 12.903 5.49684 -10.8097 0 0 0 
413 1 13.6642 4.91582 -10.9189 0 0 0 
1813 2 14.6301 5.22032 -10.2756 0 0 0 
415 1 12.0115 5.70701 -10.4997 0 0 0 
1549 2 13.8775 6.0493 -10.4169 0 0 0 
214 1 14.9856 6.17768 -10.8374 0 0 0 
533 1 13.0847 7.14079 -10.2985 0 0 0 
1055 2 1.33081 8.01369 -10.4093 0 0 0 
1836 2 6.34956 15.8112 -10.9524 0 0 0 
1521 2 14.8663 17.5995 -10.6023 0 0 0 
1822 2 2.0495 -14.4735 -9.8432 0 0 0 
64 1 7.3542 -14.9526 -9.20206 0 0 0 
1167 2 10.4063 -14.7206 -9.38181 0 0 0 
1504 2 -9.9618 -13.399 -9.63837 0 0 0 
1763 2 2.84748 -13.6425 -8.90932 0 0 0 
65 1 7.01172 -14.3525 -9.87147 0 0 0 
1433 2 7.51736 -13.2361 -9.56941 0 0 0 
622 1 11.3692 -12.3969 -9.54549 0 0 0 
621 1 11.5804 -11.6061 -9.08956 0 0 0 
1088 2 9.67767 -10.2334 -9.52408 0 0 0 
1726 2 0.796318 -9.52415 -8.95749 0 0 0 
88 1 1.87368 -9.15013 -9.69615 0 0 0 
89 1 2.73423 -9.14457 -9.19613 0 0 0 
1067 2 5.71282 -9.5553 -8.9455 0 0 0 
632 1 8.32622 -9.47774 -9.80299 0 0 0 
633 1 9.1123 -9.09083 -9.32653 0 0 0 
1513 2 10.0497 -9.08897 -9.85366 0 0 0 
1304 2 10.8521 -9.76307 -9.25049 0 0 0 
578 1 11.2052 -8.91364 -9.931 0 0 0 
87 1 1.39496 -8.29863 -9.6603 0 0 0 
593 1 2.49264 -7.99574 -9.55933 0 0 0 
599 1 5.66045 -8.42034 -9.41741 0 0 0 
1616 2 7.21564 -7.96264 -9.82148 0 0 0 
44 1 8.29482 -8.05545 -9.17395 0 0 0 
1071 2 9.7482 -8.07951 -9.39197 0 0 0 
1372 2 12.0086 -8.24785 -8.9348 0 0 0 
594 1 2.01614 -7.45536 -8.94042 0 0 0 
1939 2 3.23541 -6.72491 -9.32493 0 0 0 
598 1 5.17082 -7.59937 -9.1062 0 0 0 
940 1 7.24938 -6.98821 -9.44673 0 0 0 
1682 2 8.97664 -7.33313 -9.36787 0 0 0 
1670 2 10.1384 -7.0833 -9.17055 0 0 0 
641 1 11.601 -7.57402 -9.73593 0 0 0 
640 1 12.1611 -7.17634 -9.00762 0 0 0 
1588 2 0.256724 -5.77302 -9.40721 0 0 0 
1115 2 1.44735 -6.29091 -9.36614 0 0 0 
878 1 2.34429 -6.08555 -9.04416 0 0 0 
35 1 5.10287 -6.36877 -9.69029 0 0 0 
34 1 5.69478 -5.65144 -9.3969 0 0 0 
1111 2 6.43606 -6.41576 -9.23056 0 0 0 
1693 2 7.58401 -5.92702 -9.13446 0 0 0 
665 1 9.58222 -6.58658 -9.86267 0 0 0 
1923 2 10.6119 -5.99152 -9.10529 0 0 0 
1325 2 11.6577 -5.57241 -9.59409 0 0 0 
824 1 13.179 -5.95213 -9.57505 0 0 0 
1534 2 -10.7413 -5.44568 -9.64973 0 0 0 
1146 2 3.43968 -5.40893 -9.0684 0 0 0 
931 1 4.6181 -4.4541 -9.50873 0 0 0 
930 1 4.61854 -5.16865 -8.89016 0 0 0 
33 1 6.49789 -5.3528 -9.02645 0 0 0 
1915 2 6.98368 -5.50609 -9.92156 0 0 0 
31 1 7.59665 -4.60281 -9.54223 0 0 0 
1978 2 9.57059 -5.26293 -9.34107 0 0 0 
1737 2 10.8362 -4.90869 -9.54485 0 0 0 
110 1 11.7148 -4.58164 -8.92272 0 0 0 
1691 2 12.6774 -5.02339 -9.81778 0 0 0 