ITEM: TIMESTEP
10000000
ITEM: NUMBER OF ATOMS
1548
ITEM: BOX BOUNDS pp pp pp
-3.0000000000000000e+01 3.0000000000000000e+01
-3.0000000000000000e+01 3.0000000000000000e+01
-3.0000000000000000e+01 3.0000000000000000e+01
ITEM: ATOMS id type x y z ix iy iz 
1512 2 -4.08431 -10.2406 -17.3417 0 0 0 
1155 2 13.8277 -10.6079 -16.9841 0 0 0 
1092 2 -3.59318 -9.56427 -16.7352 0 0 0 
1484 2 -11.8466 -7.34975 -17.6909 0 0 0 
1260 2 5.03362 -7.50541 -17.0566 0 0 0 
1467 2 -2.44217 -5.76333 -16.7016 0 0 0 
1097 2 -3.2214 -6.13531 -17.4235 0 0 0 
1339 2 -7.5458 -2.18192 -16.8678 0 0 0 
1525 2 -4.99206 -1.10916 -17.2966 0 0 0 
1128 2 -3.89941 6.26803 -17.5381 0 0 0 
1224 2 -10.8779 7.72659 -17.1815 0 0 0 
1436 2 7.22034 12.1939 -17.0144 0 0 0 
1538 2 15.7823 12.5925 -17.4588 0 0 0 
1043 2 -0.905648 14.348 -16.9298 0 0 0 
1104 2 -13.6109 17.4084 -16.8285 0 0 0 
1494 2 -5.01889 -15.0062 -15.6018 0 0 0 
1343 2 -0.750776 -5.09881 -15.9157 0 0 0 
13 1 -1.49599 -4.26707 -16.1122 0 0 0 
12 1 -0.624366 -3.82951 -16.1765 0 0 0 
11 1 0.161516 -3.35289 -16.3683 0 0 0 
274 1 3.96488 -3.77783 -15.734 0 0 0 
10 1 0.371351 -2.69026 -15.7295 0 0 0 
1067 2 4.74598 -1.29811 -15.7264 0 0 0 
1 1 -0.675372 0.00349361 -15.7415 0 0 0 
1432 2 3.65308 4.61103 -15.5681 0 0 0 
1054 2 11.5319 6.13886 -15.5595 0 0 0 
1018 2 -0.838773 10.6745 -15.9 0 0 0 
1516 2 -16.2282 14.3541 -16.1563 0 0 0 
1300 2 -11.9226 14.1165 -15.937 0 0 0 
1441 2 17.1744 14.4059 -16.3544 0 0 0 
1371 2 -15.7111 15.4968 -16.2807 0 0 0 
1391 2 10.5136 15.2821 -16.2795 0 0 0 
1280 2 -8.29356 16.1769 -15.9644 0 0 0 
1539 2 15.4987 16.404 -16.0532 0 0 0 
1083 2 -0.937993 -17.2017 -14.8034 0 0 0 
1085 2 -2.64009 -11.6126 -14.4733 0 0 0 
1132 2 0.316789 -11.6749 -15.3381 0 0 0 
16 1 -3.13617 -5.8273 -14.6575 0 0 0 
15 1 -2.32388 -5.78522 -15.1726 0 0 0 
14 1 -1.90049 -4.96428 -15.5457 0 0 0 
1504 2 2.91315 -5.46777 -15.3634 0 0 0 
272 1 2.3182 -4.59798 -14.9569 0 0 0 
271 1 1.51322 -4.4132 -14.4725 0 0 0 
273 1 3.11328 -4.31753 -15.4577 0 0 0 
1372 2 0.983897 -3.19677 -14.7577 0 0 0 
275 1 4.52798 -3.11178 -15.3127 0 0 0 
276 1 5.1224 -2.41971 -15.1217 0 0 0 
8 1 0.434718 -1.37148 -14.4542 0 0 0 
9 1 0.649575 -2.06623 -15.1608 0 0 0 
2 1 -1.20362 0.430323 -15.1035 0 0 0 
3 1 -1.24796 1.15218 -14.4843 0 0 0 
1349 2 16.0564 14.1431 -14.7793 0 0 0 
1453 2 -0.740096 16.4954 -14.8913 0 0 0 
1279 2 3.21356 16.2687 -15.0628 0 0 0 
1383 2 11.9725 16.2652 -14.7481 0 0 0 
1342 2 16.8733 -17.2028 -13.8162 0 0 0 
1166 2 -14.9804 -13.2152 -14.0923 0 0 0 
1377 2 -5.22003 -13.0057 -14.3044 0 0 0 
19 1 -2.62335 -7.88975 -13.404 0 0 0 
18 1 -3.14064 -7.0575 -13.4798 0 0 0 
1498 2 5.28344 -7.18457 -14.1318 0 0 0 
17 1 -3.28035 -6.14162 -13.7244 0 0 0 
269 1 -0.0980869 -3.95136 -13.5943 0 0 0 
270 1 0.783032 -3.90555 -13.9516 0 0 0 
1142 2 1.40456 -2.39099 -14.2442 0 0 0 
1100 2 6.27958 -2.27384 -13.4686 0 0 0 
277 1 5.31711 -1.96413 -14.2753 0 0 0 
278 1 5.31887 -1.14294 -13.7045 0 0 0 
1246 2 6.76505 -1.25469 -13.7702 0 0 0 
290 1 8.00864 -1.69752 -13.6827 0 0 0 
7 1 0.401271 -0.638924 -13.8777 0 0 0 
289 1 7.94223 -0.657184 -13.7618 0 0 0 
6 1 0.190686 0.207248 -13.5713 0 0 0 
1409 2 6.76704 0.811191 -13.5751 0 0 0 
288 1 8.3799 0.208952 -13.514 0 0 0 
287 1 9.18956 0.707029 -13.449 0 0 0 
1103 2 9.79183 0.0547736 -13.908 0 0 0 
4 1 -0.435384 1.15175 -13.996 0 0 0 
1106 2 17.3775 1.21487 -13.8428 0 0 0 
1301 2 10.3422 2.76816 -13.4999 0 0 0 
1196 2 -1.65506 10.499 -14.29 0 0 0 
1119 2 4.83172 15.2274 -13.8287 0 0 0 
1185 2 3.67606 -14.26 -12.2353 0 0 0 
1423 2 -9.4181 -11.5692 -12.6567 0 0 0 
1144 2 7.60804 -10.7833 -13.1324 0 0 0 
1222 2 -0.661834 -9.15583 -12.6507 0 0 0 
1001 2 6.17394 -9.07179 -12.8688 0 0 0 
1543 2 -2.52959 -8.3725 -12.3654 0 0 0 
21 1 -1.4817 -8.36019 -12.3365 0 0 0 
20 1 -1.73157 -8.12328 -13.2484 0 0 0 
1140 2 -2.10037 -7.40008 -12.5462 0 0 0 
1006 2 -13.7297 -4.73425 -12.7942 0 0 0 
1398 2 0.713082 -4.56099 -12.9478 0 0 0 
264 1 -4.66596 -4.30677 -12.2375 0 0 0 
265 1 -3.79759 -3.97467 -12.5794 0 0 0 
266 1 -2.88967 -4.29516 -12.8589 0 0 0 
267 1 -1.9572 -4.23714 -13.163 0 0 0 
268 1 -0.979329 -3.96847 -13.2514 0 0 0 
1542 2 -0.261541 -3.25332 -12.5919 0 0 0 
292 1 7.77374 -2.91577 -12.2907 0 0 0 
291 1 8.17925 -2.51084 -13.1425 0 0 0 
1475 2 6.49839 -1.37676 -12.4897 0 0 0 
1030 2 4.66883 -0.224488 -12.8145 0 0 0 
279 1 5.88378 -0.423581 -13.2848 0 0 0 
1243 2 7.40166 -0.048325 -12.9509 0 0 0 
302 1 1.90443 0.719827 -12.4905 0 0 0 
1311 2 5.37851 1.02005 -12.9498 0 0 0 
280 1 6.39248 0.122727 -12.6385 0 0 0 
1009 2 8.46048 0.662685 -12.4058 0 0 0 
1137 2 -5.13565 1.85739 -12.9923 0 0 0 
5 1 0.116678 1.12585 -13.2356 0 0 0 
1114 2 1.90446 1.78999 -12.9446 0 0 0 
286 1 9.97077 1.23132 -13.0813 0 0 0 
1397 2 12.8048 2.09811 -13.2076 0 0 0 
378 1 4.22722 2.79483 -12.7176 0 0 0 
379 1 3.3542 3.11982 -12.891 0 0 0 
1384 2 8.96969 3.09729 -13.3037 0 0 0 
380 1 2.50376 3.54814 -12.8155 0 0 0 
1407 2 13.6315 10.7201 -12.6777 0 0 0 
1129 2 2.10018 11.6941 -12.4168 0 0 0 
1399 2 0.686211 12.8639 -12.8067 0 0 0 
766 1 1.08531 16.2848 -12.7371 0 0 0 
767 1 2.03793 16.2538 -12.8415 0 0 0 
764 1 -0.0397716 17.5498 -12.2417 0 0 0 
765 1 0.676999 17.1167 -12.7922 0 0 0 
1268 2 4.72691 -14.8267 -11.8892 0 0 0 
1500 2 11.6926 -14.7184 -11.2004 0 0 0 
1259 2 13.4914 -14.491 -11.4548 0 0 0 
1431 2 -11.6693 -13.9758 -11.393 0 0 0 
242 1 -3.63634 -14.4269 -11.4224 0 0 0 
241 1 -2.72024 -14.0163 -11.4991 0 0 0 
31 1 -3.5807 -9.39454 -11.3467 0 0 0 
32 1 -3.09821 -9.454 -12.2075 0 0 0 
33 1 -2.17543 -9.54767 -12.0834 0 0 0 
34 1 -1.30976 -9.56295 -11.7222 0 0 0 
35 1 -0.498902 -9.3628 -11.2996 0 0 0 
22 1 -1.70286 -7.81732 -11.5342 0 0 0 
41 1 1.40329 -5.66031 -11.4131 0 0 0 
263 1 -5.14405 -4.61602 -11.4315 0 0 0 
42 1 0.931599 -4.91077 -11.8273 0 0 0 
43 1 1.12483 -4.01001 -11.9525 0 0 0 
44 1 0.821595 -3.18588 -11.5085 0 0 0 
293 1 8.00204 -2.96122 -11.3441 0 0 0 
299 1 3.68109 -1.19051 -11.7493 0 0 0 
298 1 4.59042 -1.55073 -11.8699 0 0 0 
297 1 5.49151 -1.41582 -11.7375 0 0 0 
296 1 6.27565 -1.69359 -11.1787 0 0 0 
705 1 -8.5455 -0.442629 -11.1865 0 0 0 
301 1 1.96907 -0.0740007 -11.9454 0 0 0 
300 1 2.83757 -0.586498 -12.018 0 0 0 
1191 2 3.79021 -0.109305 -12.2176 0 0 0 
1295 2 4.81899 -0.410093 -11.7557 0 0 0 
282 1 7.6592 -0.245283 -11.415 0 0 0 
283 1 8.64546 -0.241607 -11.3194 0 0 0 
1182 2 13.3358 -0.544757 -11.6204 0 0 0 
1376 2 -16.7291 0.932258 -12.1484 0 0 0 
1413 2 2.04748 0.688534 -11.1897 0 0 0 
1511 2 2.87793 0.474735 -11.9676 0 0 0 
376 1 3.94171 1.11077 -11.7926 0 0 0 
375 1 4.82095 0.707525 -11.8113 0 0 0 
1220 2 5.78771 0.189163 -11.5964 0 0 0 
281 1 6.89429 0.0706602 -11.8783 0 0 0 
284 1 9.32649 0.429584 -11.6852 0 0 0 
1335 2 -2.63323 2.1783 -11.51 0 0 0 
303 1 2.05493 1.45761 -11.8313 0 0 0 
377 1 4.14374 1.99066 -12.2123 0 0 0 
1071 2 5.92822 1.20099 -11.2675 0 0 0 
285 1 9.81337 1.18416 -12.0664 0 0 0 
1256 2 11.8805 1.3154 -11.678 0 0 0 
1455 2 -7.24389 2.67836 -11.9898 0 0 0 
381 1 2.00494 3.97919 -12.144 0 0 0 
382 1 1.91525 4.43937 -11.3091 0 0 0 
1390 2 12.1124 4.89482 -11.5126 0 0 0 
1361 2 7.43748 7.14622 -11.7573 0 0 0 
1167 2 12.7591 10.4825 -12.1737 0 0 0 
1099 2 16.5965 10.6604 -12.1665 0 0 0 
1087 2 -12.1165 12.5105 -11.2734 0 0 0 
1230 2 -11.126 13.4549 -11.7558 0 0 0 
1546 2 0.856314 14.8231 -11.467 0 0 0 
769 1 1.95116 15.1066 -11.2647 0 0 0 
768 1 1.77445 15.7757 -11.9802 0 0 0 
1101 2 1.1791 17.0739 -11.7937 0 0 0 
762 1 -1.32863 18.5419 -11.2053 0 0 0 
763 1 -0.762087 18.1816 -11.9686 0 0 0 
1131 2 1.59642 -17.4721 -10.2278 0 0 0 
1330 2 3.21694 -15.5767 -10.916 0 0 0 
192 1 4.10084 -16.2592 -10.3982 0 0 0 
191 1 4.77776 -16.0636 -11.0685 0 0 0 
190 1 4.22158 -15.2964 -11.0803 0 0 0 
243 1 -4.33914 -13.7545 -11.0829 0 0 0 
240 1 -2.40032 -13.7729 -10.5739 0 0 0 
188 1 3.06552 -13.8889 -10.9435 0 0 0 
189 1 3.88289 -14.408 -11.0606 0 0 0 
227 1 -11.4401 -12.398 -10.5165 0 0 0 
228 1 -10.5035 -12.4036 -10.6271 0 0 0 
244 1 -4.45139 -12.7404 -10.8311 0 0 0 
239 1 -2.38581 -12.977 -10.0246 0 0 0 
186 1 1.94083 -12.5668 -10.112 0 0 0 
187 1 2.41005 -13.2525 -10.7605 0 0 0 
248 1 -7.16499 -11.1299 -10.3424 0 0 0 
246 1 -5.58033 -11.1775 -10.9956 0 0 0 
245 1 -4.90715 -11.8838 -10.9932 0 0 0 
249 1 -7.98714 -10.7565 -10.0037 0 0 0 
1313 2 -7.49733 -10.2239 -10.891 0 0 0 
247 1 -6.43692 -10.6937 -10.7809 0 0 0 
1036 2 -10.1515 -9.80133 -10.563 0 0 0 
250 1 -8.48616 -9.99136 -10.3986 0 0 0 
30 1 -4.43898 -9.00806 -11.0659 0 0 0 
1424 2 -3.77409 -9.58522 -10.2691 0 0 0 
1289 2 -2.38174 -9.99077 -10.2341 0 0 0 
1520 2 -0.10515 -9.32567 -10.1262 0 0 0 
36 1 0.39403 -9.04239 -11.0582 0 0 0 
1037 2 -10.5065 -7.86894 -10.8342 0 0 0 
1352 2 -8.19464 -7.92407 -10.8581 0 0 0 
1116 2 -5.66457 -8.16385 -10.4134 0 0 0 
29 1 -4.53645 -8.75871 -10.1288 0 0 0 
1048 2 -3.10384 -8.81252 -10.4759 0 0 0 
1161 2 -1.85258 -8.81965 -10.5124 0 0 0 
37 1 1.03583 -8.8728 -10.29 0 0 0 
1488 2 -7.14908 -7.18986 -10.6517 0 0 0 
23 1 -1.71715 -7.51039 -10.5637 0 0 0 
1120 2 0.177729 -7.68864 -10.5647 0 0 0 
39 1 1.50712 -7.26916 -10.4916 0 0 0 
40 1 1.28002 -6.50073 -11.1014 0 0 0 
262 1 -5.07243 -5.18316 -10.6864 0 0 0 
1460 2 17.3141 -4.84654 -10.0469 0 0 0 
1118 2 -11.0314 -3.7178 -10.4701 0 0 0 
45 1 0.379007 -3.37786 -10.5661 0 0 0 
46 1 -0.379255 -3.17172 -10.0423 0 0 0 
703 1 -10.0724 -1.33483 -10.4377 0 0 0 
294 1 7.72268 -2.18107 -10.9414 0 0 0 
295 1 6.92692 -1.88234 -10.5122 0 0 0 
704 1 -9.36664 -0.985353 -10.9842 0 0 0 
1052 2 3.12675 -0.448698 -11.0033 0 0 0 
373 1 4.6348 -0.185154 -10.216 0 0 0 
706 1 -7.81767 0.114571 -10.7867 0 0 0 
707 1 -7.61986 1.02698 -10.4787 0 0 0 
1345 2 2.86163 0.719874 -10.566 0 0 0 
1183 2 3.819 0.261487 -11.0455 0 0 0 
374 1 4.95533 0.490073 -10.8507 0 0 0 
708 1 -7.09773 1.86563 -10.3459 0 0 0 
304 1 2.50252 1.7798 -10.9933 0 0 0 
305 1 3.35657 1.77573 -10.4953 0 0 0 
1333 2 -5.48102 4.06587 -10.7201 0 0 0 
383 1 1.34498 4.92409 -10.6599 0 0 0 
1123 2 2.85749 5.59293 -10.6121 0 0 0 
1195 2 1.28923 8.12691 -10.3479 0 0 0 
785 1 5.33245 9.55137 -10.1281 0 0 0 
786 1 6.30311 9.33658 -10.2165 0 0 0 
1472 2 9.27457 9.24304 -10.1846 0 0 0 
1482 2 -11.841 11.4078 -10.785 0 0 0 
1210 2 -3.12276 15.5075 -10.8179 0 0 0 
770 1 1.67285 14.8761 -10.3237 0 0 0 
1402 2 0.937996 15.8362 -10.5804 0 0 0 
761 1 -1.60808 17.9526 -10.3573 0 0 0 
1261 2 1.01629 -16.7888 -9.53314 0 0 0 
193 1 3.4774 -15.8197 -9.77831 0 0 0 
194 1 3.30848 -15.2939 -9.0129 0 0 0 
1193 2 -1.44667 -13.6216 -9.40834 0 0 0 
226 1 -12.2151 -12.4262 -9.88846 0 0 0 
1359 2 -11.4068 -12.3088 -9.09536 0 0 0 
230 1 -9.33129 -12.4943 -9.42601 0 0 0 
1211 2 -4.02876 -12.3523 -9.82536 0 0 0 
238 1 -2.66203 -12.7199 -9.0936 0 0 0 
1004 2 3.03313 -13.1008 -9.78556 0 0 0 
225 1 -12.775 -12.0038 -9.28597 0 0 0 
229 1 -10.108 -12.1261 -9.77753 0 0 0 
185 1 1.69578 -11.8638 -9.42466 0 0 0 
1181 2 3.11012 -11.3157 -9.23143 0 0 0 
184 1 1.71464 -11.0145 -8.96583 0 0 0 
251 1 -8.58038 -9.2342 -9.84317 0 0 0 
27 1 -3.00589 -8.91232 -9.1408 0 0 0 
252 1 -7.90167 -8.80408 -9.39178 0 0 0 
253 1 -7.35359 -8.03894 -9.52347 0 0 0 
28 1 -3.92827 -8.82428 -9.39587 0 0 0 
26 1 -2.05331 -8.88365 -8.95917 0 0 0 
25 1 -1.28641 -8.33332 -9.00627 0 0 0 
1341 2 -2.1933 -8.00284 -9.58902 0 0 0 
24 1 -1.09017 -8.01529 -9.88552 0 0 0 
38 1 1.21153 -7.98504 -9.98786 0 0 0 
1117 2 -10.1925 -7.61682 -9.03559 0 0 0 
254 1 -7.37618 -7.14919 -9.11768 0 0 0 
255 1 -8.01151 -6.45892 -9.36992 0 0 0 
256 1 -8.47843 -5.68381 -8.99121 0 0 0 
260 1 -6.2184 -4.97723 -9.21251 0 0 0 
261 1 -5.38253 -5.056 -9.73514 0 0 0 
700 1 -9.93451 -3.73077 -9.63298 0 0 0 
47 1 -1.13227 -3.43075 -9.33133 0 0 0 
701 1 -10.3855 -2.93561 -9.95672 0 0 0 
1154 2 0.630163 -2.85415 -9.53869 0 0 0 
366 1 4.99259 -2.54377 -9.2852 0 0 0 
365 1 5.64324 -3.25499 -8.95855 0 0 0 
91 1 8.76962 -2.55041 -9.70802 0 0 0 
92 1 9.30145 -3.05219 -9.14204 0 0 0 
702 1 -10.4607 -1.97135 -9.80466 0 0 0 
369 1 2.53929 -1.48024 -9.42942 0 0 0 
368 1 3.34172 -1.95674 -9.55684 0 0 0 
367 1 4.31192 -1.89975 -9.55739 0 0 0 
90 1 8.04308 -1.91287 -9.81819 0 0 0 
555 1 1.64264 -0.341088 -8.89668 0 0 0 
372 1 4.27747 -0.295227 -9.26938 0 0 0 
1434 2 5.06554 -1.04619 -9.53396 0 0 0 
314 1 6.08588 -1.01705 -9.14596 0 0 0 
313 1 5.77522 -0.0965822 -9.24125 0 0 0 
88 1 7.46533 -0.213038 -9.67647 0 0 0 
89 1 7.87353 -0.985888 -9.98334 0 0 0 
1465 2 -10.2187 0.635725 -9.52193 0 0 0 
1307 2 -6.37374 0.515234 -9.2497 0 0 0 
556 1 2.01399 0.56232 -9.12361 0 0 0 
312 1 5.82902 0.841425 -8.99022 0 0 0 
87 1 7.66278 0.598365 -9.13503 0 0 0 
1235 2 -14.3926 1.80089 -9.81743 0 0 0 
557 1 2.61169 1.33077 -9.12671 0 0 0 
306 1 4.07716 1.9517 -9.83743 0 0 0 
307 1 4.7044 1.85871 -9.12309 0 0 0 
1082 2 6.69934 1.62983 -9.16857 0 0 0 
709 1 -6.79435 2.60378 -9.86653 0 0 0 
1250 2 7.22744 2.53044 -9.42573 0 0 0 
710 1 -6.65086 3.43919 -9.27809 0 0 0 
384 1 1.61768 5.3197 -9.88442 0 0 0 
1202 2 3.53045 5.16114 -9.77337 0 0 0 
385 1 2.27894 5.78567 -9.38404 0 0 0 
386 1 3.23242 6.00246 -9.09853 0 0 0 
1421 2 -16.0649 7.84674 -9.92958 0 0 0 
789 1 8.80977 8.48217 -9.42598 0 0 0 
788 1 8.0856 8.88151 -9.91725 0 0 0 
1406 2 -10.0189 9.99331 -9.04739 0 0 0 
784 1 4.43095 9.64781 -9.86917 0 0 0 
787 1 7.15785 9.03989 -9.90976 0 0 0 
782 1 3.11322 10.0494 -8.89786 0 0 0 
783 1 3.89706 10.3194 -9.47894 0 0 0 
1039 2 -14.518 12.1102 -9.96726 0 0 0 
774 1 -0.793956 12.6888 -9.40551 0 0 0 
752 1 -7.89612 13.8952 -9.07115 0 0 0 
753 1 -7.14284 13.632 -9.56135 0 0 0 
754 1 -6.62581 14.4168 -9.30531 0 0 0 
773 1 -0.164802 13.363 -9.57093 0 0 0 
772 1 -0.0575798 14.2714 -9.818 0 0 0 
755 1 -5.72108 14.6816 -9.12038 0 0 0 
771 1 0.93587 14.5036 -9.78333 0 0 0 
759 1 -2.64994 16.4831 -9.51083 0 0 0 
758 1 -3.28216 15.8808 -9.13708 0 0 0 
760 1 -2.135 17.2497 -9.83714 0 0 0 
1197 2 17.7211 -17.8855 -8.02332 0 0 0 
1532 2 -11.1929 -16.7439 -7.93355 0 0 0 
1452 2 -11.9472 -16.3544 -8.63977 0 0 0 
196 1 1.59922 -14.6129 -8.75304 0 0 0 
195 1 2.48758 -14.9239 -8.63757 0 0 0 
1153 2 15.54 -14.9457 -7.97624 0 0 0 
198 1 -0.0482969 -14.337 -7.92181 0 0 0 
197 1 0.717905 -14.4349 -8.44014 0 0 0 
224 1 -12.6868 -12.3884 -8.3739 0 0 0 
231 1 -8.57822 -12.6014 -8.88213 0 0 0 
232 1 -8.00288 -12.2666 -8.16317 0 0 0 
233 1 -6.99348 -12.2355 -8.06859 0 0 0 
235 1 -5.2461 -12.2389 -8.43304 0 0 0 
1422 2 -4.51612 -13.1619 -8.75355 0 0 0 
237 1 -3.56394 -12.5682 -8.76761 0 0 0 
234 1 -6.06504 -12.106 -7.97726 0 0 0 
236 1 -4.35405 -12.1213 -8.62008 0 0 0 
183 1 1.29339 -10.5284 -8.23193 0 0 0 
1327 2 8.65546 -8.63783 -8.4289 0 0 0 
1444 2 5.3678 -6.35495 -7.95267 0 0 0 
257 1 -8.60287 -4.85319 -8.54323 0 0 0 
258 1 -7.78406 -4.44887 -8.67575 0 0 0 
51 1 -3.99498 -5.06714 -8.44161 0 0 0 
1206 2 -1.0169 -4.92277 -8.50462 0 0 0 
1078 2 5.08033 -4.62028 -8.33933 0 0 0 
698 1 -10.3573 -3.99463 -7.9483 0 0 0 
699 1 -9.91099 -4.21298 -8.7918 0 0 0 
259 1 -6.81541 -4.30912 -8.82916 0 0 0 
50 1 -3.59597 -4.19793 -8.42534 0 0 0 
49 1 -2.86172 -3.68003 -8.67718 0 0 0 
48 1 -1.93397 -3.40697 -8.75989 0 0 0 
364 1 5.58567 -3.57478 -8.01624 0 0 0 
1053 2 -17.8701 -3.12161 -7.87121 0 0 0 
1125 2 5.15302 -2.5222 -8.26819 0 0 0 
1351 2 6.79184 -2.96437 -8.7141 0 0 0 
93 1 8.85783 -3.17067 -8.23433 0 0 0 
1190 2 4.11535 -1.95549 -8.47239 0 0 0 
315 1 6.58953 -1.76816 -8.59785 0 0 0 
1065 2 7.24986 -1.45112 -7.90521 0 0 0 
554 1 1.17393 -0.384263 -8.04319 0 0 0 
370 1 2.82897 -1.03159 -8.65283 0 0 0 
1105 2 2.26797 -0.0829 -8.08453 0 0 0 
371 1 3.72357 -0.654988 -8.57253 0 0 0 
1216 2 4.66434 -1.06489 -8.59373 0 0 0 
1319 2 5.75947 -0.742884 -8.21889 0 0 0 
1544 2 6.95912 -0.654773 -8.63385 0 0 0 
1177 2 -17.7999 1.0486 -8.7297 0 0 0 
1528 2 1.2832 0.773673 -8.03691 0 0 0 
1045 2 3.07059 0.216241 -8.77135 0 0 0 
1296 2 3.84796 0.550834 -8.1063 0 0 0 
1257 2 5.01643 0.181677 -8.23658 0 0 0 
311 1 5.92662 1.02518 -8.03856 0 0 0 
1059 2 8.38133 0.573365 -8.15726 0 0 0 
1245 2 1.79919 2.11266 -8.62625 0 0 0 
558 1 2.47677 1.14432 -8.23925 0 0 0 
1312 2 6.05667 2.13009 -8.28344 0 0 0 
86 1 7.67301 1.38141 -8.46467 0 0 0 
1138 2 3.37825 3.18972 -8.69321 0 0 0 
308 1 5.13993 2.44506 -8.48935 0 0 0 
83 1 6.00114 3.3074 -8.10845 0 0 0 
85 1 7.49512 2.31858 -8.35084 0 0 0 
84 1 6.73486 2.86631 -8.40483 0 0 0 
711 1 -6.52413 4.04231 -8.52625 0 0 0 
712 1 -6.01694 4.65219 -7.97139 0 0 0 
799 1 2.95922 4.78082 -8.29288 0 0 0 
800 1 2.27025 5.27844 -7.79177 0 0 0 
798 1 3.89151 4.4862 -8.42221 0 0 0 
797 1 4.78168 4.552 -7.87449 0 0 0 
796 1 5.5274 5.10752 -7.99872 0 0 0 
1189 2 4.43726 5.62249 -7.96353 0 0 0 
387 1 3.79908 6.45924 -8.42806 0 0 0 
805 1 1.70649 7.64609 -7.92502 0 0 0 
1356 2 3.22813 7.32321 -7.91579 0 0 0 
1418 2 -12.839 8.1116 -8.66929 0 0 0 
907 1 -7.06599 8.84383 -8.06162 0 0 0 
806 1 2.54896 7.96967 -8.33344 0 0 0 
807 1 3.41857 8.41707 -8.0181 0 0 0 
791 1 8.48574 7.81569 -7.78905 0 0 0 
790 1 9.01857 8.17069 -8.53502 0 0 0 
906 1 -6.19964 9.28184 -8.05255 0 0 0 
779 1 0.714234 9.84951 -8.17707 0 0 0 
780 1 1.58302 9.64399 -7.86197 0 0 0 
781 1 2.22661 9.77498 -8.60177 0 0 0 
778 1 -0.201375 10.1574 -8.11905 0 0 0 
777 1 -1.05858 10.4625 -8.25467 0 0 0 
1034 2 -6.26354 12.206 -8.29864 0 0 0 
720 1 -3.77411 11.1745 -7.79769 0 0 0 
776 1 -1.33483 11.4079 -8.4835 0 0 0 
1218 2 -6.72263 13.1048 -8.66133 0 0 0 
775 1 -1.42989 12.3631 -8.75488 0 0 0 
1158 2 15.686 13.2123 -7.86043 0 0 0 
751 1 -8.07659 13.4705 -8.1948 0 0 0 
756 1 -4.99953 15.2353 -8.72751 0 0 0 
757 1 -4.14713 15.7114 -8.72636 0 0 0 
1439 2 -15.2077 -16.8951 -7.60157 0 0 0 
668 1 -2.65238 -16.0122 -6.94054 0 0 0 
217 1 -8.42664 -14.4718 -6.70105 0 0 0 
1506 2 -5.45865 -14.7818 -6.71257 0 0 0 
669 1 -2.90333 -15.1493 -7.19278 0 0 0 
1178 2 -13.4038 -13.7601 -7.29041 0 0 0 
222 1 -12.2781 -13.8017 -7.23683 0 0 0 
670 1 -3.19055 -14.2825 -7.21208 0 0 0 
199 1 -0.663126 -14.4332 -7.13081 0 0 0 
223 1 -12.6315 -12.9629 -7.6193 0 0 0 
1292 2 -9.01126 -11.383 -6.81686 0 0 0 
1318 2 -5.12161 -11.5756 -6.93234 0 0 0 
1050 2 -2.53506 -11.7382 -7.55414 0 0 0 
182 1 1.12991 -10.1894 -7.30306 0 0 0 
1427 2 10.2198 -10.0736 -6.87875 0 0 0 
542 1 -0.0938834 -7.69062 -6.70565 0 0 0 
543 1 0.524012 -6.98694 -7.03217 0 0 0 
53 1 -4.25169 -5.84933 -6.82774 0 0 0 
54 1 -3.38706 -6.41273 -6.94327 0 0 0 
55 1 -2.41269 -6.46805 -6.87089 0 0 0 
56 1 -1.43528 -6.33009 -6.69068 0 0 0 
1127 2 -0.971039 -6.40256 -7.72132 0 0 0 
57 1 -0.960582 -5.5934 -7.05932 0 0 0 
52 1 -4.12971 -5.14623 -7.55604 0 0 0 
58 1 -0.746449 -4.71587 -7.35331 0 0 0 
1510 2 -11.5069 -4.16178 -7.61654 0 0 0 
697 1 -10.5511 -4.07044 -6.98209 0 0 0 
59 1 -1.18445 -3.94495 -7.49214 0 0 0 
60 1 -2.13984 -3.67454 -7.52187 0 0 0 
1309 2 4.07636 -3.62973 -7.73519 0 0 0 
363 1 5.13988 -3.61902 -7.16782 0 0 0 
1283 2 8.15411 -3.39444 -6.7849 0 0 0 
61 1 -2.95158 -3.27509 -7.08392 0 0 0 
94 1 8.767 -2.71269 -7.40693 0 0 0 
1088 2 2.34189 -1.20207 -7.23242 0 0 0 
317 1 5.77982 -1.7091 -6.84459 0 0 0 
316 1 6.18596 -1.90344 -7.70302 0 0 0 
553 1 0.788284 -0.530065 -7.16479 0 0 0 
560 1 1.95531 -0.0407526 -7.02449 0 0 0 
1084 2 3.42584 -0.851082 -7.59858 0 0 0 
1017 2 7.90477 -0.503209 -7.57619 0 0 0 
559 1 2.2925 0.748864 -7.38732 0 0 0 
76 1 0.884879 1.77716 -6.90296 0 0 0 
77 1 1.71791 1.67661 -7.36209 0 0 0 
78 1 2.67145 1.80169 -7.21066 0 0 0 
79 1 3.53347 1.56582 -7.10729 0 0 0 
310 1 5.82051 1.62886 -7.21577 0 0 0 
80 1 3.93199 2.48128 -7.25023 0 0 0 
309 1 5.38904 2.41664 -7.53794 0 0 0 
81 1 4.27591 3.33442 -7.36865 0 0 0 
82 1 5.16218 3.51939 -7.5213 0 0 0 
713 1 -5.3798 5.05775 -7.3561 0 0 0 
801 1 1.82419 5.49458 -6.89439 0 0 0 
795 1 6.04022 5.49221 -7.31985 0 0 0 
714 1 -4.98178 5.98529 -7.41399 0 0 0 
803 1 0.935665 6.65894 -6.79403 0 0 0 
794 1 6.83826 5.79129 -6.90163 0 0 0 
793 1 7.51386 6.3977 -6.91248 0 0 0 
715 1 -4.49351 6.7916 -7.32467 0 0 0 
716 1 -4.53863 7.72003 -7.45452 0 0 0 
804 1 0.940327 7.17324 -7.59911 0 0 0 
388 1 4.22041 6.77315 -7.67125 0 0 0 
389 1 4.83813 6.93601 -6.88386 0 0 0 
792 1 8.02044 7.16834 -7.23676 0 0 0 
717 1 -3.99515 8.49939 -7.65817 0 0 0 
908 1 -7.12958 9.47514 -7.37053 0 0 0 
905 1 -5.86629 9.92974 -7.48554 0 0 0 
718 1 -3.42052 9.25213 -7.74043 0 0 0 
808 1 3.60201 9.31338 -7.75528 0 0 0 
809 1 3.84405 9.93295 -7.04612 0 0 0 
744 1 -8.57929 10.9343 -6.67213 0 0 0 
1247 2 -7.96978 10.163 -6.94785 0 0 0 
904 1 -5.18001 10.6204 -7.51258 0 0 0 
903 1 -4.59533 10.739 -6.69718 0 0 0 
719 1 -3.55461 10.2175 -7.7429 0 0 0 
1287 2 2.71673 10.2132 -7.55284 0 0 0 
1428 2 7.84656 10.9436 -7.75749 0 0 0 
1141 2 -6.79717 11.5815 -7.31112 0 0 0 
1417 2 -5.82838 11.6646 -7.48657 0 0 0 
1468 2 -3.34866 12.1905 -7.02697 0 0 0 
721 1 -4.4249 11.7276 -7.23973 0 0 0 
1338 2 -0.736177 12.1661 -7.42389 0 0 0 
1188 2 8.93483 11.2909 -7.7677 0 0 0 
750 1 -8.05301 13.1908 -7.18801 0 0 0 
1529 2 -6.59023 17.2797 -6.76171 0 0 0 
665 1 -1.12054 -17.8393 -5.71654 0 0 0 
1156 2 -15.8564 -17.6735 -6.66211 0 0 0 
212 1 -4.74779 -16.8922 -6.05668 0 0 0 
667 1 -2.51851 -16.7179 -6.3067 0 0 0 
666 1 -1.79582 -17.2416 -5.79429 0 0 0 
213 1 -5.45225 -16.2401 -6.01457 0 0 0 
211 1 -3.83095 -16.5977 -5.84533 0 0 0 
210 1 -3.46837 -15.744 -6.03298 0 0 0 
216 1 -7.43558 -14.6709 -6.55316 0 0 0 
214 1 -5.94716 -15.4459 -5.98414 0 0 0 
215 1 -6.48091 -14.6973 -6.40868 0 0 0 
1275 2 -4.68683 -15.4281 -6.01312 0 0 0 
209 1 -3.38016 -14.8674 -5.60606 0 0 0 
1448 2 -2.44099 -15.0853 -6.18736 0 0 0 
200 1 -0.787427 -14.6238 -6.1859 0 0 0 
1057 2 -13.8831 -14.0931 -6.28989 0 0 0 
221 1 -11.8373 -13.795 -6.42895 0 0 0 
220 1 -10.9904 -13.853 -5.83667 0 0 0 
218 1 -9.24369 -14.1227 -6.28454 0 0 0 
219 1 -9.95877 -13.6949 -5.79861 0 0 0 
1152 2 -4.43981 -14.0305 -5.88686 0 0 0 
671 1 -3.33912 -13.525 -6.6624 0 0 0 
672 1 -3.5987 -13.4722 -5.71398 0 0 0 
1029 2 -2.76367 -14.0704 -6.00535 0 0 0 
1126 2 -1.31593 -13.7089 -6.40513 0 0 0 
133 1 5.3301 -13.4057 -5.56446 0 0 0 
1171 2 -9.18077 -12.9789 -6.40618 0 0 0 
654 1 -5.63261 -13.2941 -5.88505 0 0 0 
653 1 -6.36196 -12.7277 -5.73837 0 0 0 
1404 2 -4.1448 -12.7007 -6.19241 0 0 0 
132 1 4.80034 -12.6084 -5.72366 0 0 0 
652 1 -6.09647 -11.8515 -6.10599 0 0 0 
1282 2 16.3003 -12.1522 -5.97678 0 0 0 
651 1 -5.58523 -11.0401 -6.08719 0 0 0 
650 1 -5.2216 -10.2745 -6.47494 0 0 0 
181 1 1.32009 -10.2912 -6.31514 0 0 0 
649 1 -4.40273 -9.81749 -6.3548 0 0 0 
180 1 0.588545 -9.75414 -5.8622 0 0 0 
580 1 9.63983 -9.68496 -6.07856 0 0 0 
581 1 10.1178 -9.00341 -6.62256 0 0 0 
582 1 10.884 -9.11308 -6.06401 0 0 0 
541 1 -0.519392 -8.16582 -6.00007 0 0 0 
1055 2 9.10837 -8.80962 -6.3251 0 0 0 
1044 2 -4.01042 -7.20823 -6.63169 0 0 0 
1278 2 4.87652 -6.79503 -6.51314 0 0 0 
1040 2 -0.487623 -6.32042 -5.97808 0 0 0 
1348 2 0.417568 -5.64286 -6.27763 0 0 0 
544 1 1.18426 -6.60573 -6.52285 0 0 0 
545 1 1.25259 -5.99098 -5.75334 0 0 0 
1518 2 3.84324 -5.20486 -6.48269 0 0 0 
696 1 -11.048 -4.44002 -6.25676 0 0 0 
566 1 4.57114 -4.19878 -5.91247 0 0 0 
362 1 5.41924 -3.4999 -6.28108 0 0 0 
62 1 -3.24466 -2.7724 -6.29054 0 0 0 
1269 2 1.68904 -2.42779 -6.52087 0 0 0 
565 1 4.37889 -3.25295 -5.69413 0 0 0 
564 1 3.50398 -2.72558 -5.65201 0 0 0 
1360 2 4.95505 -2.3313 -5.68818 0 0 0 
361 1 6.26438 -3.28695 -5.72925 0 0 0 
360 1 6.93878 -2.57433 -5.56738 0 0 0 
95 1 9.04986 -2.56848 -6.50145 0 0 0 
551 1 1.43072 -1.39303 -5.6047 0 0 0 
1470 2 3.89536 -1.73439 -6.2526 0 0 0 
318 1 5.64348 -1.25799 -5.96366 0 0 0 
1146 2 6.68305 -1.44739 -6.12006 0 0 0 
1005 2 -3.19858 -0.615328 -6.62332 0 0 0 
552 1 1.17821 -0.745327 -6.29001 0 0 0 
561 1 2.31034 -0.43241 -6.2432 0 0 0 
922 1 -10.5733 0.909051 -5.62546 0 0 0 
923 1 -9.9401 0.137034 -5.60214 0 0 0 
1408 2 1.95337 0.493002 -5.73287 0 0 0 
1204 2 13.9412 0.727728 -6.20871 0 0 0 
921 1 -11.0861 1.8053 -5.63198 0 0 0 
1369 2 2.65073 1.30962 -6.06677 0 0 0 
920 1 -11.4236 2.70342 -5.83387 0 0 0 
74 1 -0.325607 2.88487 -5.97791 0 0 0 
75 1 0.443884 2.41062 -6.28515 0 0 0 
505 1 2.6162 3.05571 -5.80838 0 0 0 
506 1 3.42043 2.35593 -5.81657 0 0 0 
919 1 -11.4714 3.67148 -5.70213 0 0 0 
917 1 -10.4717 5.0976 -5.88669 0 0 0 
916 1 -9.63204 5.51156 -5.90466 0 0 0 
1414 2 12.2521 5.40405 -6.3692 0 0 0 
915 1 -8.70321 5.57744 -5.59081 0 0 0 
802 1 1.26819 5.91697 -6.29639 0 0 0 
912 1 -6.58044 6.80946 -5.57069 0 0 0 
911 1 -6.08418 7.47427 -6.01116 0 0 0 
1080 2 -4.12411 7.36872 -6.28647 0 0 0 
1272 2 4.03399 6.68079 -6.22409 0 0 0 
390 1 5.14794 7.44169 -6.0287 0 0 0 
910 1 -6.31099 8.42617 -6.00657 0 0 0 
728 1 -3.34444 8.68459 -6.46904 0 0 0 
729 1 -2.57358 8.23296 -6.12861 0 0 0 
742 1 -8.61662 9.58265 -5.88838 0 0 0 
909 1 -6.79965 9.12307 -6.5105 0 0 0 
726 1 -4.92461 9.8121 -6.28807 0 0 0 
727 1 -4.04176 9.33755 -6.44349 0 0 0 
1485 2 3.52299 9.96005 -5.93676 0 0 0 
392 1 5.60978 9.03331 -5.63855 0 0 0 
743 1 -9.05516 10.1934 -6.41746 0 0 0 
1134 2 -6.47486 10.6796 -6.59077 0 0 0 
725 1 -5.57687 10.4778 -5.97199 0 0 0 
902 1 -3.84526 10.5214 -6.14245 0 0 0 
901 1 -3.14125 10.9381 -5.70884 0 0 0 
810 1 4.43723 10.3135 -6.36369 0 0 0 
745 1 -7.90611 11.5876 -6.34991 0 0 0 
746 1 -7.14532 12.0537 -6.49464 0 0 0 
724 1 -5.91137 11.4036 -6.04348 0 0 0 
723 1 -5.17106 11.9681 -5.791 0 0 0 
1208 2 -3.76948 11.5667 -6.24985 0 0 0 
747 1 -6.29948 12.5542 -6.58586 0 0 0 
722 1 -4.60199 12.3078 -6.52458 0 0 0 
749 1 -7.75638 13.7002 -6.4995 0 0 0 
748 1 -6.83652 13.3605 -6.27314 0 0 0 
1056 2 12.2789 13.8889 -5.99316 0 0 0 
1344 2 -13.6385 17.6841 -5.70446 0 0 0 
664 1 -0.546868 -18.0485 -4.97796 0 0 0 
1530 2 -5.46949 -15.7661 -5.0507 0 0 0 
1325 2 -6.78641 -14.6715 -5.1257 0 0 0 
656 1 -5.10605 -14.7617 -4.82204 0 0 0 
657 1 -4.40752 -15.3014 -4.44933 0 0 0 
1047 2 -0.0874141 -15.241 -4.96397 0 0 0 
201 1 -1.05648 -14.6199 -5.27522 0 0 0 
655 1 -5.50165 -14.1652 -5.47031 0 0 0 
673 1 -4.16651 -13.6217 -4.90409 0 0 0 
208 1 -3.1634 -14.1903 -4.9869 0 0 0 
202 1 -1.01689 -14.0434 -4.50502 0 0 0 
134 1 6.03764 -14.0369 -5.36064 0 0 0 
593 1 9.64235 -13.6432 -4.73968 0 0 0 
1242 2 -4.91811 -12.7916 -5.37521 0 0 0 
207 1 -3.03809 -13.2908 -4.55496 0 0 0 
206 1 -2.55629 -12.6151 -5.00843 0 0 0 
1527 2 -1.38266 -13.0422 -4.97504 0 0 0 
1425 2 2.76082 -12.448 -4.73475 0 0 0 
131 1 4.30011 -12.3498 -4.92654 0 0 0 
135 1 6.53445 -13.253 -5.10513 0 0 0 
136 1 6.64199 -12.3753 -4.67322 0 0 0 
592 1 10.1717 -12.924 -5.13765 0 0 0 
591 1 10.5781 -12.2444 -4.49173 0 0 0 
205 1 -1.82634 -12.2154 -4.51331 0 0 0 
179 1 0.269824 -10.032 -4.95376 0 0 0 
648 1 -4.1279 -9.43746 -5.47458 0 0 0 
178 1 0.699294 -9.22907 -4.68694 0 0 0 
1276 2 5.35071 -9.76011 -4.61094 0 0 0 
579 1 9.71366 -9.53516 -4.98658 0 0 0 
1139 2 10.8767 -9.17682 -4.80184 0 0 0 
583 1 11.66 -9.45011 -5.53632 0 0 0 
584 1 12.2872 -9.87958 -4.91282 0 0 0 
647 1 -3.92447 -8.70258 -4.94858 0 0 0 
540 1 -0.46799 -8.30202 -5.07871 0 0 0 
177 1 1.47515 -8.63121 -4.4796 0 0 0 
1412 2 -8.68602 -6.68726 -4.54116 0 0 0 
570 1 5.6928 -7.15573 -5.11055 0 0 0 
571 1 6.55203 -6.97443 -4.73394 0 0 0 
694 1 -11.5414 -5.82238 -5.02936 0 0 0 
568 1 4.38811 -5.9217 -5.37584 0 0 0 
569 1 5.03972 -6.57747 -5.54199 0 0 0 
1364 2 5.24817 -6.38647 -4.51813 0 0 0 
695 1 -11.2454 -4.91044 -5.29694 0 0 0 
546 1 1.52203 -5.26048 -5.11857 0 0 0 
547 1 1.86549 -4.48335 -4.60852 0 0 0 
567 1 4.1757 -4.94343 -5.45964 0 0 0 
1086 2 1.38414 -3.77843 -5.3231 0 0 0 
548 1 2.54954 -3.74335 -4.48438 0 0 0 
63 1 -3.49091 -2.30623 -5.5046 0 0 0 
549 1 2.51404 -2.85539 -4.91848 0 0 0 
359 1 6.54745 -2.74042 -4.70483 0 0 0 
96 1 9.33022 -2.4276 -5.53868 0 0 0 
97 1 9.55931 -2.33079 -4.6521 0 0 0 
1379 2 10.8946 -2.84729 -5.35348 0 0 0 
925 1 -8.78717 -1.15966 -4.72472 0 0 0 
926 1 -7.91914 -1.54759 -4.62525 0 0 0 
927 1 -6.97973 -1.40425 -4.84282 0 0 0 
928 1 -6.11855 -1.4502 -4.52744 0 0 0 
64 1 -3.30021 -2.07119 -4.5567 0 0 0 
550 1 1.99838 -2.11402 -5.2157 0 0 0 
563 1 3.03374 -1.83479 -5.42654 0 0 0 
320 1 4.67433 -1.16448 -4.65548 0 0 0 
319 1 5.59795 -1.20057 -4.98552 0 0 0 
924 1 -9.36874 -0.608684 -5.37965 0 0 0 
562 1 2.45469 -1.01542 -5.51546 0 0 0 
1255 2 13.7006 -0.387716 -4.85808 0 0 0 
1490 2 -11.2281 0.380526 -4.98765 0 0 0 
1263 2 1.95351 1.01776 -4.56738 0 0 0 
507 1 4.08625 1.77928 -5.50376 0 0 0 
508 1 4.81357 1.55475 -4.86186 0 0 0 
73 1 -0.874296 3.24813 -5.24212 0 0 0 
918 1 -10.9975 4.41511 -5.4627 0 0 0 
1022 2 -3.82067 4.38536 -4.96524 0 0 0 
504 1 2.04477 3.67506 -5.42915 0 0 0 
503 1 1.89055 3.72797 -4.44604 0 0 0 
914 1 -7.80325 5.58192 -5.36713 0 0 0 
913 1 -7.12582 6.206 -5.07815 0 0 0 
396 1 7.52166 7.25156 -4.4823 0 0 0 
741 1 -8.33534 8.77959 -5.27796 0 0 0 
740 1 -7.74972 8.73499 -4.45018 0 0 0 
730 1 -2.28011 7.98473 -5.20964 0 0 0 
391 1 5.13797 8.2202 -5.43881 0 0 0 
395 1 7.64073 8.21033 -4.59371 0 0 0 
738 1 -6.11991 8.97934 -4.51443 0 0 0 
737 1 -5.38365 9.38936 -4.99815 0 0 0 
1415 2 -4.30965 9.59319 -5.24449 0 0 0 
1396 2 3.29964 9.69109 -4.86573 0 0 0 
393 1 6.53027 9.24093 -5.27554 0 0 0 
394 1 7.23901 9.07121 -4.63844 0 0 0 
736 1 -4.84062 10.2301 -4.66543 0 0 0 
812 1 4.02029 10.5754 -4.54883 0 0 0 
811 1 4.38743 10.673 -5.49823 0 0 0 
1186 2 6.73085 10.3518 -4.9794 0 0 0 
900 1 -3.00522 11.391 -4.90967 0 0 0 
1019 2 7.36384 11.3705 -5.18928 0 0 0 
1228 2 -4.01007 16.0783 -4.52918 0 0 0 
1051 2 -16.051 -17.3036 -3.46614 0 0 0 
659 1 -3.52788 -16.8237 -3.82708 0 0 0 
660 1 -3.02515 -17.6988 -3.93834 0 0 0 
662 1 -1.27666 -17.2765 -3.44226 0 0 0 
661 1 -2.20979 -17.2452 -3.83136 0 0 0 
663 1 -1.0772 -17.7697 -4.25894 0 0 0 
658 1 -4.22062 -16.0977 -3.95273 0 0 0 
602 1 3.67903 -15.6858 -3.52399 0 0 0 
601 1 4.62016 -15.9049 -3.68585 0 0 0 
600 1 5.5135 -16.0627 -4.02827 0 0 0 
1395 2 -1.66972 -14.8968 -4.37721 0 0 0 
674 1 -4.75651 -13.7984 -4.0895 0 0 0 
675 1 -5.25191 -14.417 -3.51518 0 0 0 
1487 2 4.16309 -13.5215 -3.69745 0 0 0 
1545 2 7.11839 -13.3471 -3.53283 0 0 0 
595 1 8.32286 -13.6962 -3.41891 0 0 0 
594 1 8.91231 -13.945 -4.13785 0 0 0 
1438 2 -2.02479 -13.2944 -4.17568 0 0 0 
204 1 -1.09752 -12.2909 -3.82014 0 0 0 
203 1 -0.846231 -13.2085 -3.9709 0 0 0 
1236 2 3.32665 -12.4752 -3.38165 0 0 0 
130 1 4.06728 -12.5512 -4.01828 0 0 0 
1062 2 5.13457 -13.1467 -4.13956 0 0 0 
137 1 6.85379 -12.251 -3.69273 0 0 0 