ITEM: TIMESTEP
10000000
ITEM: NUMBER OF ATOMS
2000
ITEM: BOX BOUNDS pp pp pp
-3.0000000000000000e+01 3.0000000000000000e+01
-3.0000000000000000e+01 3.0000000000000000e+01
-3.0000000000000000e+01 3.0000000000000000e+01
ITEM: ATOMS id type x y z ix iy iz 
1221 2 2.34147 -16.4013 -18.0134 0 0 0 
637 1 12.3126 -9.41519 -17.7883 0 0 0 
636 1 13.1308 -9.58704 -18.1565 0 0 0 
720 1 2.68152 -2.69064 -17.8058 0 0 0 
399 1 3.25652 0.459082 -17.8924 0 0 0 
1915 2 17.553 17.5638 -17.783 0 0 0 
1136 2 10.9403 -15.9441 -17.2733 0 0 0 
638 1 12.2833 -9.91827 -16.9846 0 0 0 
635 1 13.8856 -9.18452 -17.6674 0 0 0 
634 1 14.6753 -9.00145 -17.1543 0 0 0 
1554 2 3.58096 -8.53976 -17.2273 0 0 0 
1725 2 5.98791 -8.64611 -17.3315 0 0 0 
1743 2 -12.1846 -7.38489 -17.6172 0 0 0 
1404 2 5.56507 -7.68669 -17.0568 0 0 0 
716 1 4.89322 -5.29346 -16.7793 0 0 0 
1650 2 -13.0179 -4.10216 -17.381 0 0 0 
718 1 3.88273 -3.70409 -16.9918 0 0 0 
717 1 4.52778 -4.43603 -17.0113 0 0 0 
324 1 9.80809 -3.46616 -16.9893 0 0 0 
719 1 3.05749 -3.22322 -17.0416 0 0 0 
323 1 10.6704 -3.15974 -17.1642 0 0 0 
322 1 11.4694 -2.62866 -17.2896 0 0 0 
1611 2 -12.0767 -1.24461 -17.0947 0 0 0 
721 1 3.0174 -1.78184 -17.713 0 0 0 
1971 2 3.01665 -2.10018 -16.7086 0 0 0 
1865 2 4.03633 -2.07937 -17.3122 0 0 0 
722 1 3.55927 -1.15809 -17.2186 0 0 0 
321 1 11.693 -1.70874 -17.3045 0 0 0 
397 1 1.92303 -0.434093 -16.9776 0 0 0 
398 1 2.6235 -0.205461 -17.6087 0 0 0 
1223 2 5.03964 -0.868285 -17.1349 0 0 0 
320 1 10.9944 -0.984297 -17.3722 0 0 0 
1177 2 -17.3671 1.07804 -17.3325 0 0 0 
400 1 4.00678 0.752735 -17.4205 0 0 0 
1070 2 5.07686 0.305555 -17.1165 0 0 0 
401 1 4.65035 1.17156 -16.8947 0 0 0 
1369 2 5.62109 1.34123 -17.6737 0 0 0 
1131 2 6.99587 7.95348 -17.6826 0 0 0 
1264 2 -8.10512 11.9518 -17.0421 0 0 0 
1940 2 -11.4808 14.2498 -17.5804 0 0 0 
1445 2 -12.9219 17.8865 -16.8584 0 0 0 
1813 2 -3.39338 -17.9363 -15.7654 0 0 0 
1466 2 -2.68094 -10.2101 -16.0519 0 0 0 
887 1 5.47208 -10.6998 -16.4095 0 0 0 
888 1 4.68393 -11.0985 -15.9723 0 0 0 
886 1 5.75159 -9.82545 -16.5024 0 0 0 
885 1 6.54638 -9.3169 -16.5545 0 0 0 
1263 2 8.81625 -9.13591 -16.0545 0 0 0 
639 1 12.0337 -9.43385 -16.1682 0 0 0 
712 1 6.58467 -8.42502 -15.6799 0 0 0 
884 1 7.20296 -8.5972 -16.5661 0 0 0 
707 1 9.93614 -8.15971 -15.5787 0 0 0 
633 1 15.282 -8.41518 -16.4804 0 0 0 
1357 2 -10.255 -6.97478 -16.5263 0 0 0 
714 1 5.25309 -7.08342 -16.1344 0 0 0 
713 1 6.10719 -7.62735 -16.0065 0 0 0 
883 1 7.7627 -7.73815 -16.5993 0 0 0 
1060 2 7.60996 -7.36215 -15.5577 0 0 0 
882 1 7.89425 -6.7333 -16.4218 0 0 0 
706 1 10.5547 -7.33952 -15.5998 0 0 0 
1341 2 14.1719 -7.05547 -15.6174 0 0 0 
632 1 15.1344 -7.58426 -16.0494 0 0 0 
715 1 5.13608 -6.1318 -16.4278 0 0 0 
881 1 8.05707 -5.80066 -16.6364 0 0 0 
1023 2 8.81673 -6.01949 -15.8909 0 0 0 
1317 2 6.79461 -5.27108 -15.9088 0 0 0 
880 1 8.10848 -4.97652 -16.1049 0 0 0 
326 1 9.22897 -4.7021 -15.9987 0 0 0 
878 1 6.75549 -3.84352 -15.702 0 0 0 
1666 2 8.45248 -3.91265 -16.5749 0 0 0 
325 1 9.51087 -3.80857 -16.1551 0 0 0 
131 1 3.36557 -2.53585 -15.8744 0 0 0 
877 1 6.14998 -3.07712 -15.8525 0 0 0 
130 1 3.53209 -1.59827 -15.9703 0 0 0 
1490 2 5.4573 -1.52145 -15.9299 0 0 0 
1101 2 11.5212 -1.30831 -16.0663 0 0 0 
1921 2 -8.97251 -0.322192 -15.8923 0 0 0 
396 1 1.52465 -0.368346 -16.0781 0 0 0 
1643 2 2.59567 -1.02948 -16.5241 0 0 0 
395 1 2.33198 -0.732286 -15.566 0 0 0 
129 1 4.3901 -1.06901 -16.0901 0 0 0 
723 1 3.47399 -0.52792 -16.5214 0 0 0 
128 1 5.18868 -0.463531 -16.1456 0 0 0 
127 1 5.92017 -0.0445128 -16.5682 0 0 0 
874 1 7.03171 -0.579597 -15.5603 0 0 0 
869 1 8.72307 -0.264659 -15.6334 0 0 0 
319 1 10.707 -0.638426 -16.486 0 0 0 
318 1 11.0284 -0.554935 -15.6219 0 0 0 
724 1 3.26565 0.304369 -16.0304 0 0 0 
1329 2 4.15167 0.954869 -15.9908 0 0 0 
126 1 6.57166 0.681641 -16.5316 0 0 0 
1207 2 7.73546 0.664155 -16.4375 0 0 0 
870 1 8.6939 0.686753 -15.908 0 0 0 
1473 2 -2.10622 1.57186 -16.3856 0 0 0 
402 1 5.19709 1.144 -16.0954 0 0 0 
125 1 6.78002 1.4714 -16.1039 0 0 0 
871 1 8.30659 1.54263 -16.0649 0 0 0 
1340 2 5.27162 8.16671 -15.9327 0 0 0 
1681 2 -6.82395 13.8721 -16.1637 0 0 0 
1976 2 -12.9756 -17.1429 -14.5463 0 0 0 
1014 2 -12.6397 -15.3603 -15.2518 0 0 0 
1169 2 10.3127 -14.5874 -15.1861 0 0 0 
1107 2 -6.42807 -11.9503 -15.1503 0 0 0 
889 1 5.23224 -11.3995 -15.2076 0 0 0 
890 1 5.06326 -10.6206 -14.6196 0 0 0 
711 1 7.22853 -9.14959 -15.5067 0 0 0 
710 1 7.89467 -8.9553 -14.7632 0 0 0 
709 1 8.79234 -9.19633 -14.5385 0 0 0 
640 1 11.6061 -9.15985 -15.3827 0 0 0 
641 1 11.16 -9.04416 -14.5434 0 0 0 
1525 2 8.61647 -8.3206 -15.3789 0 0 0 
708 1 9.57186 -8.76118 -14.97 0 0 0 
1647 2 15.1186 -8.39056 -14.5592 0 0 0 
1749 2 -1.32395 -7.29013 -14.7059 0 0 0 
1297 2 6.85117 -7.71926 -14.8695 0 0 0 
1627 2 8.67801 -7.08343 -15.5022 0 0 0 
1463 2 9.60292 -7.37051 -14.8674 0 0 0 
1048 2 12.8666 -7.06254 -14.9034 0 0 0 
631 1 15.1416 -7.40886 -15.0759 0 0 0 
1064 2 6.33344 -6.22344 -14.491 0 0 0 
1318 2 6.84622 -6.51079 -15.5369 0 0 0 
1440 2 7.68909 -5.75162 -15.5523 0 0 0 
328 1 8.86271 -6.01849 -14.8029 0 0 0 
329 1 8.10867 -6.5856 -14.5784 0 0 0 
705 1 10.7934 -6.37557 -15.5015 0 0 0 
704 1 10.5762 -5.70431 -14.823 0 0 0 
614 1 11.8361 -6.27114 -14.7033 0 0 0 
1352 2 3.55801 -5.18687 -14.4791 0 0 0 
736 1 4.71556 -5.36181 -14.6492 0 0 0 
1528 2 5.8174 -5.53756 -15.2991 0 0 0 
742 1 6.71215 -5.03679 -14.7605 0 0 0 
1909 2 8.31712 -4.92018 -14.5941 0 0 0 
327 1 9.24386 -5.32426 -15.2737 0 0 0 
1639 2 10.2474 -4.45882 -15.5468 0 0 0 
613 1 11.5799 -5.39127 -14.544 0 0 0 
133 1 2.18227 -3.55333 -14.8576 0 0 0 
735 1 4.40791 -4.42492 -14.7086 0 0 0 
734 1 3.55948 -3.99826 -14.6846 0 0 0 
744 1 5.46916 -3.72065 -14.6943 0 0 0 
1822 2 6.57263 -3.43069 -14.6488 0 0 0 
1270 2 5.91527 -4.42694 -15.3733 0 0 0 
879 1 7.65535 -4.32125 -15.531 0 0 0 
1995 2 8.78635 -3.81245 -15.3196 0 0 0 
1720 2 9.26322 -4.23313 -14.4599 0 0 0 
612 1 11.6292 -4.40561 -14.4834 0 0 0 
1536 2 -5.53747 -2.58078 -14.7011 0 0 0 
132 1 2.73028 -3.01418 -15.3934 0 0 0 
1944 2 4.13157 -3.16467 -15.4403 0 0 0 
1348 2 5.16622 -2.43224 -15.4536 0 0 0 
745 1 5.36379 -2.80874 -14.5586 0 0 0 
876 1 6.38529 -2.26793 -15.3967 0 0 0 
1508 2 7.63194 -3.10382 -15.3323 0 0 0 
1302 2 9.50082 -2.38812 -15.4404 0 0 0 
697 1 9.13901 -3.18925 -14.521 0 0 0 
696 1 9.98979 -3.25081 -14.9545 0 0 0 
695 1 10.9225 -3.13062 -14.9824 0 0 0 
694 1 11.7177 -2.6429 -14.6963 0 0 0 
1208 2 4.32305 -1.89394 -15.2718 0 0 0 
746 1 5.53269 -1.87959 -14.6257 0 0 0 
875 1 6.50883 -1.32829 -15.3424 0 0 0 
1968 2 8.4996 -2.11063 -14.9844 0 0 0 
868 1 8.9444 -1.12546 -15.2129 0 0 0 
867 1 9.50711 -1.41928 -14.4616 0 0 0 
1222 2 10.3292 -1.49876 -15.308 0 0 0 
1157 2 11.4495 -1.67917 -14.6449 0 0 0 
1261 2 12.5134 -2.02453 -14.7835 0 0 0 
394 1 2.60334 -0.84335 -14.6114 0 0 0 
1996 2 3.71001 -0.791905 -15.1401 0 0 0 
1939 2 4.9047 -0.791671 -15.1247 0 0 0 
1047 2 6.08452 -0.545346 -14.5954 0 0 0 
1757 2 8.1414 -0.0595092 -14.7938 0 0 0 
1884 2 9.40669 -0.188221 -14.6417 0 0 0 
317 1 11.431 -0.117635 -14.9285 0 0 0 
1850 2 12.2712 -0.953221 -15.2067 0 0 0 
725 1 3.35875 0.941321 -15.2862 0 0 0 
1419 2 4.26041 0.148143 -15.2849 0 0 0 
727 1 4.91519 1.03974 -14.8674 0 0 0 
728 1 5.19007 0.140126 -14.8006 0 0 0 
1257 2 6.11093 0.481706 -15.2576 0 0 0 
873 1 7.27245 0.294276 -15.4191 0 0 0 
1872 2 -1.34732 1.12604 -14.7625 0 0 0 
726 1 4.03848 1.40412 -14.8055 0 0 0 
403 1 5.64609 1.78692 -15.4989 0 0 0 
404 1 5.63238 2.06917 -14.56 0 0 0 
1997 2 6.50519 1.33134 -14.8171 0 0 0 
124 1 7.12866 2.12062 -15.4967 0 0 0 
872 1 7.63159 1.20106 -15.4559 0 0 0 
1632 2 8.58792 1.20633 -14.9933 0 0 0 
114 1 13.9876 1.97622 -14.4967 0 0 0 
1956 2 6.287 2.69029 -15.1362 0 0 0 
123 1 7.29646 2.67326 -14.7378 0 0 0 
1563 2 7.73227 3.77476 -14.6208 0 0 0 
1022 2 1.46471 5.97313 -15.492 0 0 0 
1334 2 2.00665 7.61935 -15.164 0 0 0 
1702 2 9.94205 12.7809 -14.9117 0 0 0 
1731 2 14.5366 13.1166 -15.2622 0 0 0 
1744 2 -9.87362 -14.4642 -13.8584 0 0 0 
1397 2 -7.93153 -12.1289 -14.1132 0 0 0 
891 1 5.26138 -10.541 -13.6209 0 0 0 
1200 2 12.1665 -10.3057 -13.8289 0 0 0 
1550 2 0.390611 -8.41177 -13.7134 0 0 0 
332 1 6.53936 -8.37431 -13.5505 0 0 0 
331 1 7.35467 -8.21013 -13.9326 0 0 0 
1515 2 8.67963 -8.25514 -13.8829 0 0 0 
642 1 10.7698 -8.50253 -13.771 0 0 0 
616 1 12.1316 -7.88674 -13.705 0 0 0 
738 1 5.57154 -6.81979 -13.9186 0 0 0 
739 1 6.46819 -6.90193 -13.5124 0 0 0 
330 1 7.78766 -7.41331 -14.3251 0 0 0 
1980 2 8.87879 -6.82486 -13.9636 0 0 0 
898 1 9.31698 -7.63769 -13.3409 0 0 0 
899 1 10.0789 -7.1533 -13.6034 0 0 0 
615 1 11.8872 -7.09364 -14.2854 0 0 0 
1038 2 11.1707 -7.40743 -13.3592 0 0 0 
574 1 13.7015 -7.34513 -13.4457 0 0 0 
630 1 15.2533 -7.21974 -14.1233 0 0 0 
737 1 4.95094 -6.26106 -14.4195 0 0 0 
740 1 7.1518 -6.2571 -13.7567 0 0 0 
1591 2 8.39219 -5.78837 -13.888 0 0 0 
1655 2 9.47181 -5.9136 -13.7032 0 0 0 
1751 2 10.6644 -6.14675 -13.5454 0 0 0 
581 1 11.9141 -5.5894 -13.3552 0 0 0 
1371 2 13.254 -6.25248 -13.7655 0 0 0 
573 1 14.317 -6.582 -13.5441 0 0 0 
572 1 14.5928 -5.7029 -13.6859 0 0 0 
1535 2 1.03283 -4.97689 -13.8745 0 0 0 
135 1 2.19835 -5.04118 -13.8229 0 0 0 
537 1 4.82614 -5.00857 -13.4833 0 0 0 
741 1 7.40387 -5.54112 -14.3182 0 0 0 
702 1 9.63063 -4.65425 -13.5222 0 0 0 
703 1 10.2453 -5.11335 -14.1175 0 0 0 
1350 2 12.9545 -4.59983 -13.4315 0 0 0 
571 1 15.4407 -5.1493 -13.5753 0 0 0 
570 1 16.224 -4.64374 -13.7305 0 0 0 
134 1 2.022 -4.11861 -14.0182 0 0 0 
1975 2 3.14014 -4.34201 -13.6072 0 0 0 
743 1 6.16364 -4.34275 -14.3016 0 0 0 
1025 2 5.92689 -3.52956 -13.63 0 0 0 
1885 2 7.4117 -4.33267 -14.4417 0 0 0 
699 1 7.40762 -3.44648 -13.8431 0 0 0 
700 1 7.70552 -4.33121 -13.45 0 0 0 
698 1 8.25202 -3.47914 -14.2911 0 0 0 
701 1 8.69618 -4.3825 -13.4072 0 0 0 
1204 2 10.8546 -3.78933 -14.1344 0 0 0 
611 1 12.1027 -3.55682 -14.3647 0 0 0 
808 1 11.9079 -4.33448 -13.3854 0 0 0 
610 1 13.0663 -3.7033 -14.0317 0 0 0 
1758 2 15.402 -3.72589 -13.6012 0 0 0 
733 1 3.1927 -3.18649 -14.3252 0 0 0 
732 1 3.24887 -2.36063 -13.7428 0 0 0 
1715 2 2.50104 -3.0854 -13.3989 0 0 0 
1082 2 3.64821 -3.27847 -13.4141 0 0 0 
1527 2 4.30486 -2.45021 -13.3466 0 0 0 
1491 2 4.24729 -2.51742 -14.4391 0 0 0 
1766 2 7.13128 -2.56585 -14.3323 0 0 0 
1438 2 9.88372 -3.16667 -13.8673 0 0 0 
1558 2 10.8603 -2.75766 -13.8078 0 0 0 
693 1 12.2862 -2.53645 -13.8468 0 0 0 
568 1 17.1114 -3.27032 -13.4085 0 0 0 
1941 2 -5.52686 -1.30814 -14.2142 0 0 0 
1398 2 3.05486 -1.31369 -13.398 0 0 0 
731 1 3.74232 -1.58625 -14.2003 0 0 0 
1050 2 5.55369 -2.08683 -13.5291 0 0 0 
1154 2 6.35372 -1.47333 -14.0988 0 0 0 
593 1 7.79521 -1.52593 -14.1185 0 0 0 
866 1 10.3185 -1.32257 -13.9282 0 0 0 
1810 2 11.4125 -1.84309 -13.4373 0 0 0 
862 1 13.9754 -1.35156 -13.6869 0 0 0 
393 1 2.79844 -0.264738 -13.8362 0 0 0 
730 1 3.77215 -0.576631 -14.0541 0 0 0 
729 1 4.62527 -0.236437 -14.0896 0 0 0 
747 1 5.40445 -1.09177 -14.0488 0 0 0 
748 1 5.65519 -0.350789 -13.5787 0 0 0 
592 1 7.11908 -0.890594 -14.3457 0 0 0 
591 1 6.68798 -0.569994 -13.6172 0 0 0 
1961 2 8.57619 -0.776682 -14.1104 0 0 0 
1412 2 9.57816 -0.606802 -13.59 0 0 0 
865 1 11.1724 -0.874234 -13.8948 0 0 0 
864 1 12.1336 -0.999299 -14.1263 0 0 0 
863 1 13.1663 -0.986898 -14.1725 0 0 0 
1145 2 13.5696 -0.162729 -13.4367 0 0 0 
1051 2 16.0165 -0.338476 -13.7376 0 0 0 
1156 2 4.53 0.834458 -13.9283 0 0 0 
1687 2 5.74834 0.88759 -14.169 0 0 0 
1626 2 7.1349 0.339014 -14.4063 0 0 0 
271 1 8.82291 0.312241 -13.8954 0 0 0 
272 1 8.05522 0.878817 -14.0103 0 0 0 
270 1 9.82537 0.363078 -13.8267 0 0 0 
269 1 10.3196 1.1048 -13.4843 0 0 0 
316 1 12.0278 0.287206 -14.2362 0 0 0 
1476 2 11.4333 0.264971 -13.415 0 0 0 
315 1 12.6456 0.628664 -13.4965 0 0 0 
112 1 14.6086 0.284568 -13.8072 0 0 0 
750 1 6.56513 1.40772 -13.5415 0 0 0 
273 1 8.25516 1.68924 -13.5235 0 0 0 
1437 2 9.22728 1.17384 -13.4611 0 0 0 
1486 2 8.98297 1.96294 -14.3204 0 0 0 
1516 2 12.9124 1.87845 -14.0906 0 0 0 
1844 2 13.7741 1.42734 -13.5364 0 0 0 
113 1 14.5114 1.14304 -14.2783 0 0 0 
752 1 6.64325 3.20462 -13.9812 0 0 0 
405 1 5.7159 2.49276 -13.7279 0 0 0 
751 1 6.71255 2.24992 -14.1113 0 0 0 
122 1 8.03859 2.55815 -14.1667 0 0 0 
121 1 8.89001 2.9987 -14.2537 0 0 0 
120 1 9.82647 2.97645 -14.2864 0 0 0 
119 1 10.5259 2.56578 -13.8254 0 0 0 
118 1 11.4884 2.51634 -13.7535 0 0 0 
117 1 12.1363 3.08797 -14.1259 0 0 0 
116 1 13.055 3.07662 -14.0108 0 0 0 
115 1 13.9671 2.88806 -14.3176 0 0 0 
1926 2 -11.1497 3.66043 -14.2636 0 0 0 
753 1 7.00132 3.97208 -13.6561 0 0 0 
1616 2 7.76712 3.38899 -13.5577 0 0 0 
1768 2 9.33612 4.2432 -14.0475 0 0 0 
1255 2 10.5442 3.96531 -13.9948 0 0 0 
754 1 7.66556 4.66154 -13.5423 0 0 0 
755 1 8.43088 5.13719 -13.8112 0 0 0 
756 1 9.2839 5.53198 -13.9739 0 0 0 
758 1 10.6636 4.95382 -13.4716 0 0 0 
757 1 10.2687 5.75578 -13.898 0 0 0 
1117 2 1.96353 7.7609 -14.0277 0 0 0 
1642 2 7.47226 7.10174 -13.6582 0 0 0 
1631 2 -15.4865 13.4332 -13.7709 0 0 0 
1970 2 5.17478 -14.6781 -12.6543 0 0 0 
1467 2 6.22468 -14.452 -12.4168 0 0 0 
892 1 5.9866 -10.2908 -12.9679 0 0 0 
1474 2 11.1787 -9.38114 -13.1479 0 0 0 
618 1 12.4787 -9.58439 -12.9332 0 0 0 
1124 2 3.79282 -8.86858 -12.5756 0 0 0 
174 1 4.45946 -7.96139 -12.3299 0 0 0 
333 1 5.84587 -7.9441 -13.0785 0 0 0 
896 1 7.64338 -8.14923 -12.7539 0 0 0 
897 1 8.52033 -7.80103 -12.8082 0 0 0 
1860 2 9.15057 -8.68638 -12.9037 0 0 0 
643 1 10.6096 -8.23309 -12.8461 0 0 0 
1403 2 12.1118 -8.16584 -12.3849 0 0 0 
617 1 12.1478 -8.72133 -13.1964 0 0 0 
1339 2 14.4439 -8.24514 -12.7843 0 0 0 
575 1 13.3434 -7.96784 -12.6886 0 0 0 
173 1 4.64558 -7.36754 -13.0847 0 0 0 
1458 2 6.61677 -7.49297 -12.4913 0 0 0 
1577 2 7.47421 -7.22701 -13.2721 0 0 0 
1972 2 7.42708 -6.68964 -12.2481 0 0 0 
1959 2 9.64538 -7.49719 -12.2502 0 0 0 
1199 2 9.23708 -6.68375 -12.8555 0 0 0 
900 1 10.3548 -6.89794 -12.7272 0 0 0 
1244 2 12.6089 -7.18571 -13.1953 0 0 0 
1537 2 14.1885 -7.17336 -12.5687 0 0 0 
629 1 15.3701 -7.25375 -13.1357 0 0 0 
136 1 2.01459 -5.60834 -13.0214 0 0 0 
172 1 4.39673 -6.43685 -13.2145 0 0 0 
171 1 4.121 -5.78712 -12.4679 0 0 0 
1214 2 6.04687 -6.07944 -12.957 0 0 0 
1236 2 7.30239 -5.62133 -12.5997 0 0 0 
1953 2 8.09701 -6.49029 -13.0904 0 0 0 
1098 2 9.95634 -5.7897 -12.6827 0 0 0 
1478 2 11.7424 -6.56577 -13.3069 0 0 0 
1196 2 11.1544 -5.93734 -12.6292 0 0 0 
580 1 12.8198 -5.6417 -12.955 0 0 0 
1115 2 13.3909 -6.60953 -12.77 0 0 0 
1837 2 2.96863 -5.22417 -12.504 0 0 0 
536 1 4.61903 -4.69128 -12.6111 0 0 0 
538 1 5.69337 -5.14814 -13.0823 0 0 0 
1533 2 8.03141 -4.53589 -12.3588 0 0 0 
1595 2 8.88766 -5.3185 -12.8411 0 0 0 
583 1 10.3609 -4.75882 -12.5549 0 0 0 
582 1 11.1362 -5.04979 -13.0991 0 0 0 
807 1 12.1847 -4.65111 -12.5012 0 0 0 
1864 2 13.7873 -5.1405 -12.9034 0 0 0 
1705 2 14.7895 -5.17714 -12.4177 0 0 0 
1079 2 15.5825 -4.58159 -12.7196 0 0 0 
422 1 2.04722 -3.36686 -12.385 0 0 0 
423 1 1.45618 -4.11673 -12.4251 0 0 0 
1235 2 2.454 -4.35918 -12.546 0 0 0 
1024 2 3.47941 -4.24619 -12.437 0 0 0 
1468 2 5.39496 -3.99049 -12.8032 0 0 0 
1798 2 4.4512 -3.45195 -12.3944 0 0 0 
1858 2 6.56364 -3.88431 -12.8361 0 0 0 
1594 2 9.32546 -3.64433 -13.0444 0 0 0 
1413 2 10.4661 -3.7743 -13.1201 0 0 0 
809 1 11.54 -3.50829 -12.9911 0 0 0 
1894 2 12.7037 -3.48055 -12.9077 0 0 0 
1091 2 13.207 -4.4396 -12.2262 0 0 0 
608 1 13.9867 -3.77298 -12.3837 0 0 0 
609 1 13.7492 -3.63275 -13.2404 0 0 0 
1015 2 14.5536 -4.38873 -13.2128 0 0 0 
1457 2 15.0077 -3.50226 -12.5894 0 0 0 
569 1 16.4715 -3.90694 -13.1937 0 0 0 
1789 2 0.891286 -3.29307 -12.5888 0 0 0 
421 1 2.92285 -3.03541 -12.3478 0 0 0 
420 1 3.60748 -2.31767 -12.5599 0 0 0 
1110 2 5.85548 -2.98835 -12.7705 0 0 0 
588 1 6.5208 -2.29365 -13.0653 0 0 0 
587 1 7.18971 -3.00012 -12.9016 0 0 0 
1405 2 7.66954 -2.24464 -12.2532 0 0 0 
586 1 8.08444 -3.23704 -12.5302 0 0 0 
1430 2 9.45131 -2.52534 -12.4071 0 0 0 
810 1 10.8539 -2.90737 -12.5611 0 0 0 
771 1 13.37 -2.59544 -12.5512 0 0 0 
772 1 14.215 -2.22356 -12.3025 0 0 0 
1836 2 15.106 -2.33314 -13.1617 0 0 0 
567 1 17.7189 -2.79285 -12.7978 0 0 0 
515 1 0.0954617 -1.43186 -12.3445 0 0 0 
1738 2 1.21006 -1.43427 -12.2274 0 0 0 
1570 2 4.07461 -1.38262 -13.1652 0 0 0 
1701 2 5.37236 -2.01117 -12.4904 0 0 0 
589 1 6.18796 -1.43973 -12.8703 0 0 0 
1370 2 7.27317 -1.45468 -12.872 0 0 0 
594 1 8.25919 -1.55784 -13.2717 0 0 0 
595 1 8.67999 -1.87216 -12.5379 0 0 0 
691 1 12.14 -1.11387 -12.7916 0 0 0 
692 1 12.5894 -1.89807 -13.2038 0 0 0 
1719 2 13.6931 -1.1602 -12.663 0 0 0 
861 1 14.9131 -1.19673 -13.3247 0 0 0 
860 1 15.6185 -1.17811 -12.5891 0 0 0 
513 1 1.3664 -0.115113 -12.2484 0 0 0 
418 1 3.29066 -1.02154 -12.2713 0 0 0 
392 1 3.32381 -0.159261 -13.0183 0 0 0 
1542 2 5.38518 -0.797306 -12.6421 0 0 0 
590 1 6.5587 -0.602874 -12.6204 0 0 0 
1561 2 7.87245 -0.587938 -13.3249 0 0 0 
1201 2 10.6475 -1.10065 -12.8908 0 0 0 
690 1 11.5071 -0.432873 -12.509 0 0 0 
1479 2 15.5855 -0.184042 -12.3146 0 0 0 
391 1 3.98595 0.525435 -12.7102 0 0 0 
1234 2 4.94099 0.218497 -13.052 0 0 0 
390 1 4.78257 0.922505 -12.2558 0 0 0 
749 1 6.09978 0.534715 -13.1856 0 0 0 
1694 2 5.63904 0.30474 -12.259 0 0 0 
1674 2 9.09308 0.120964 -12.7687 0 0 0 
1969 2 10.252 0.164251 -12.8993 0 0 0 
1829 2 12.2111 0.521559 -12.2689 0 0 0 
314 1 13.2855 0.753018 -12.8463 0 0 0 
313 1 14.1188 1.08239 -12.4637 0 0 0 
1946 2 13.687 0.0152118 -12.3046 0 0 0 
111 1 14.7034 0.103599 -12.8701 0 0 0 
312 1 15.1425 1.1072 -12.4439 0 0 0 
1325 2 -9.48135 1.56597 -12.9104 0 0 0 
1991 2 4.34683 1.89644 -12.6584 0 0 0 
1557 2 5.40477 1.48504 -13.2942 0 0 0 
407 1 6.07955 1.56008 -12.3192 0 0 0 
1572 2 7.52407 1.35551 -12.5524 0 0 0 
274 1 9.06122 2.01592 -12.9465 0 0 0 
1796 2 9.81197 1.48294 -12.2365 0 0 0 
268 1 10.9045 1.34122 -12.7195 0 0 0 
1962 2 13.0934 1.84796 -12.2564 0 0 0 
406 1 5.59024 2.35621 -12.6199 0 0 0 
1441 2 6.57378 2.65401 -12.8798 0 0 0 
1099 2 8.68361 3.07364 -12.9365 0 0 0 
1151 2 9.74484 2.83518 -12.9513 0 0 0 
1076 2 10.8659 2.49349 -12.6757 0 0 0 
1756 2 11.8887 2.55014 -12.3574 0 0 0 
1820 2 12.5968 2.46207 -13.3038 0 0 0 
1493 2 13.746 2.5788 -13.0417 0 0 0 
1252 2 5.79416 3.35026 -13.1051 0 0 0 
1932 2 9.37642 3.84204 -12.5641 0 0 0 
1835 2 10.7772 3.61288 -12.8283 0 0 0 
760 1 12.1985 3.82552 -13.0129 0 0 0 
1739 2 11.1664 4.28671 -12.2516 0 0 0 
761 1 12.832 3.53844 -12.3796 0 0 0 
1986 2 10.3265 4.84466 -12.3936 0 0 0 
759 1 11.5868 4.57118 -13.2539 0 0 0 
1189 2 -13.3895 6.10904 -13.269 0 0 0 
1692 2 -13.5828 7.19988 -13.0123 0 0 0 
287 1 8.3198 6.82939 -12.7638 0 0 0 
286 1 8.852 7.40522 -13.3182 0 0 0 
285 1 9.6093 8.03633 -13.1767 0 0 0 
284 1 10.2449 7.89863 -12.5549 0 0 0 
1770 2 -17.4117 -14.7657 -11.8571 0 0 0 
894 1 6.23854 -8.96659 -11.7469 0 0 0 
893 1 5.77969 -9.78996 -12.1873 0 0 0 
619 1 12.961 -9.81883 -12.054 0 0 0 
620 1 13.5806 -9.85861 -11.3366 0 0 0 
1020 2 4.78124 -8.83124 -11.6235 0 0 0 
335 1 5.84797 -8.13483 -11.2412 0 0 0 
334 1 5.63952 -8.00515 -12.1578 0 0 0 
895 1 6.98986 -8.52488 -12.1423 0 0 0 
338 1 8.45068 -8.49712 -11.2451 0 0 0 
1065 2 9.82329 -8.50104 -11.8297 0 0 0 
644 1 11.0045 -8.74082 -12.1303 0 0 0 
645 1 10.968 -8.44548 -11.2083 0 0 0 
1153 2 11.9879 -8.59928 -11.4228 0 0 0 
1358 2 12.9836 -8.70973 -11.9764 0 0 0 
576 1 13.4441 -7.87359 -11.7528 0 0 0 
1387 2 13.9963 -8.79423 -11.9093 0 0 0 
175 1 4.37131 -7.76386 -11.4105 0 0 0 
1133 2 5.03124 -6.68565 -11.9807 0 0 0 
1787 2 8.49972 -6.97362 -11.9262 0 0 0 
1305 2 7.87268 -7.41043 -11.1571 0 0 0 
339 1 8.98812 -7.65571 -11.1978 0 0 0 
1464 2 10.6704 -7.72519 -11.9219 0 0 0 
1253 2 11.5561 -7.07172 -12.146 0 0 0 
1596 2 12.6597 -7.18094 -12.1425 0 0 0 
577 1 13.7163 -6.95359 -11.5008 0 0 0 
628 1 15.3816 -7.41896 -12.1953 0 0 0 
1203 2 14.5346 -7.6607 -11.5376 0 0 0 
627 1 15.6705 -7.27329 -11.3027 0 0 0 
137 1 1.80708 -6.00752 -12.172 0 0 0 
138 1 2.57251 -5.78105 -11.6134 0 0 0 
540 1 6.22907 -6.29478 -11.9105 0 0 0 
1621 2 6.74817 -5.69523 -11.2655 0 0 0 
1410 2 7.81118 -6.4072 -11.2483 0 0 0 
1435 2 8.74447 -5.81171 -11.1742 0 0 0 
1116 2 9.50328 -6.4911 -11.6746 0 0 0 
901 1 10.6329 -6.62578 -11.8723 0 0 0 
1460 2 12.3412 -5.93924 -12.0525 0 0 0 
1545 2 12.9679 -6.36626 -11.2383 0 0 0 
579 1 13.3439 -5.74683 -12.1322 0 0 0 
578 1 14.1698 -6.16461 -11.8436 0 0 0 
1190 2 15.1896 -5.83292 -11.5599 0 0 0 
424 1 1.2144 -5.03145 -12.0442 0 0 0 
425 1 1.40222 -4.99166 -11.1489 0 0 0 
1598 2 2.64308 -4.52704 -11.4273 0 0 0 
170 1 3.84506 -5.36747 -11.6345 0 0 0 
539 1 6.13622 -5.39721 -12.2095 0 0 0 
1256 2 6.89019 -4.73016 -11.8835 0 0 0 
1747 2 7.98111 -5.42101 -11.7812 0 0 0 
1100 2 8.32465 -4.55567 -11.116 0 0 0 
584 1 9.47722 -4.44631 -12.2011 0 0 0 
1583 2 9.53313 -4.51664 -11.1634 0 0 0 
1141 2 10.3558 -5.17299 -11.6349 0 0 0 
1426 2 11.555 -5.1554 -11.5852 0 0 0 
1690 2 12.9951 -4.94726 -11.2413 0 0 0 
1072 2 13.9784 -4.97484 -11.5972 0 0 0 
534 1 3.7157 -3.74863 -11.4777 0 0 0 
535 1 4.46259 -4.33783 -11.7337 0 0 0 
357 1 5.32944 -3.77119 -11.5732 0 0 0 
356 1 5.89671 -4.39414 -11.236 0 0 0 
1517 2 6.25797 -3.39362 -11.3214 0 0 0 
1492 2 7.23977 -3.54934 -11.7969 0 0 0 
585 1 8.73945 -3.83138 -12.0874 0 0 0 
811 1 10.1482 -3.46749 -12.1502 0 0 0 
1483 2 11.6819 -3.38174 -11.5281 0 0 0 
1140 2 11.3277 -4.17444 -12.1554 0 0 0 
1792 2 13.278 -3.35497 -11.6977 0 0 0 
806 1 12.3584 -4.15068 -11.6495 0 0 0 
607 1 14.637 -3.93418 -11.7087 0 0 0 
516 1 0.24314 -2.34338 -12.1092 0 0 0 
517 1 0.722241 -3.03522 -11.6078 0 0 0 
518 1 1.68408 -2.80639 -11.4133 0 0 0 
1518 2 4.17955 -2.72885 -11.5786 0 0 0 
358 1 5.13567 -2.86232 -11.8564 0 0 0 
1774 2 6.50243 -2.68883 -12.0746 0 0 0 
1174 2 8.42234 -2.62675 -11.4501 0 0 0 
812 1 9.59756 -3.32472 -11.3635 0 0 0 
1828 2 10.6653 -2.8859 -11.3278 0 0 0 
770 1 12.5338 -2.69757 -12.0859 0 0 0 
1601 2 14.1309 -2.97821 -11.2283 0 0 0 
1396 2 15.2525 -2.90292 -11.7282 0 0 0 
1291 2 16.2428 -3.00829 -11.413 0 0 0 
1890 2 16.0287 -2.28076 -12.2211 0 0 0 
566 1 17.9472 -2.82026 -11.9148 0 0 0 
519 1 1.57084 -1.8859 -11.1976 0 0 0 
419 1 3.26531 -1.92027 -11.7548 0 0 0 
1523 2 2.27711 -1.26083 -12.0696 0 0 0 
1309 2 4.49754 -1.82275 -12.0987 0 0 0 
359 1 5.11326 -2.09248 -11.3024 0 0 0 
1754 2 6.15777 -1.55557 -11.7675 0 0 0 
208 1 7.56212 -1.15994 -11.6303 0 0 0 
209 1 7.12821 -1.93089 -11.3947 0 0 0 
596 1 9.09862 -1.7583 -11.7497 0 0 0 
1027 2 10.4005 -1.90923 -11.5167 0 0 0 
769 1 11.8554 -2.18665 -11.6204 0 0 0 
768 1 11.8167 -1.21362 -11.465 0 0 0 
1849 2 12.8876 -1.63939 -11.9583 0 0 0 
773 1 13.9562 -1.8271 -11.5008 0 0 0 
859 1 15.9394 -1.23647 -11.6262 0 0 0 
1286 2 17.2663 -1.83385 -12.0961 0 0 0 
514 1 0.567592 -0.620304 -12.1546 0 0 0 
417 1 4.23263 -0.699592 -12.1835 0 0 0 
416 1 4.81198 -0.524535 -11.3995 0 0 0 
207 1 8.2771 -0.595437 -12.0458 0 0 0 
1246 2 8.55199 -0.914842 -11.1408 0 0 0 
206 1 9.2282 -0.410921 -11.8232 0 0 0 
1762 2 10.8118 -0.737276 -11.3741 0 0 0 
767 1 11.8942 -0.296506 -11.5411 0 0 0 
1450 2 12.9593 -0.558383 -11.2648 0 0 0 
1653 2 13.9934 -0.781767 -11.44 0 0 0 
1728 2 14.6843 -0.871601 -12.1448 0 0 0 
858 1 16.0155 -0.369694 -11.2171 0 0 0 
1576 2 -11.0674 0.477961 -11.699 0 0 0 
512 1 2.16433 0.512905 -11.9902 0 0 0 
1179 2 3.50525 0.0887268 -11.8589 0 0 0 
389 1 4.5259 0.812017 -11.383 0 0 0 
408 1 6.59756 0.746997 -12.0871 0 0 0 
409 1 7.26116 0.193275 -11.6679 0 0 0 
1150 2 9.17305 1.06233 -11.4296 0 0 0 
689 1 11.1708 0.28182 -11.9127 0 0 0 
766 1 12.5526 0.41424 -11.2985 0 0 0 
110 1 14.6367 0.110211 -11.9272 0 0 0 
1017 2 15.3954 1.10424 -11.1491 0 0 0 
311 1 15.9207 0.706406 -11.9891 0 0 0 
1574 2 -9.04508 1.6859 -11.8964 0 0 0 
510 1 3.27918 1.96026 -11.2934 0 0 0 
511 1 2.63257 1.34832 -11.6756 0 0 0 
1315 2 3.79033 1.37625 -11.9246 0 0 0 
509 1 4.21508 2.05666 -11.2926 0 0 0 
1684 2 5.61321 1.14706 -11.486 0 0 0 
1480 2 6.95762 1.23716 -11.1878 0 0 0 
91 1 8.0709 1.5561 -11.5595 0 0 0 
1274 2 9.73107 2.17057 -11.1608 0 0 0 
267 1 11.0487 1.63212 -11.771 0 0 0 
1876 2 12.067 1.38049 -11.4188 0 0 0 
765 1 13.0863 1.18461 -11.2128 0 0 0 
1547 2 14.2704 1.301 -11.1908 0 0 0 
310 1 16.5439 1.40724 -11.6061 0 0 0 
1615 2 5.91721 2.89863 -11.8021 0 0 0 
92 1 8.27635 2.31292 -12.1458 0 0 0 
93 1 8.27812 3.28241 -12.0802 0 0 0 
275 1 9.29565 2.51521 -12.1264 0 0 0 
276 1 10.1309 3.04289 -11.9339 0 0 0 
1540 2 11.2457 3.16991 -11.8108 0 0 0 
763 1 12.9886 2.49554 -11.2315 0 0 0 
1380 2 14.3863 2.40168 -11.591 0 0 0 
762 1 13.4396 2.98116 -11.9724 0 0 0 
309 1 16.8774 2.29506 -11.3439 0 0 0 
308 1 17.2347 3.18247 -11.3787 0 0 0 
1314 2 4.95423 3.43737 -11.3226 0 0 0 
1788 2 6.79388 3.54811 -12.217 0 0 0 
94 1 8.37967 4.21741 -12.1298 0 0 0 
1166 2 9.24056 3.35001 -11.3938 0 0 0 
277 1 10.1107 4.00689 -11.6797 0 0 0 
1250 2 13.8164 4.02467 -11.6392 0 0 0 
1502 2 14.8489 3.35222 -11.5031 0 0 0 
307 1 17.5657 3.90605 -11.8138 0 0 0 
95 1 9.02156 4.82914 -11.6656 0 0 0 
278 1 10.388 4.82704 -11.3565 0 0 0 
306 1 17.4594 4.82725 -12.1779 0 0 0 
1018 2 -13.3247 6.23332 -12.0628 0 0 0 
288 1 8.06188 6.40293 -11.9906 0 0 0 
1503 2 9.62012 5.64322 -11.9055 0 0 0 
279 1 10.8507 5.66612 -11.3254 0 0 0 
305 1 17.1464 5.66188 -11.8226 0 0 0 
1055 2 7.25897 7.2282 -12.2006 0 0 0 
283 1 10.7594 7.40982 -11.8333 0 0 0 
282 1 11.5223 7.52215 -11.2869 0 0 0 
1889 2 1.12756 8.71656 -11.3351 0 0 0 
1832 2 11.3541 8.6708 -11.5669 0 0 0 
1652 2 -9.57564 9.24423 -11.3711 0 0 0 
1634 2 -10.9491 10.4411 -11.4858 0 0 0 
1981 2 -8.96285 16.798 -11.4746 0 0 0 
1888 2 -16.3622 -17.5195 -10.1106 0 0 0 
1191 2 1.46276 -14.309 -10.7223 0 0 0 
1356 2 5.08184 -11.0898 -10.8042 0 0 0 
1225 2 6.45639 -10.5627 -10.3884 0 0 0 
1000 1 11.9641 -9.59738 -10.6877 0 0 0 
999 1 12.5567 -8.95478 -10.2726 0 0 0 
621 1 14.0437 -9.21003 -10.7204 0 0 0 
336 1 6.66954 -8.42634 -10.9146 0 0 0 
337 1 7.55481 -8.79648 -11.0124 0 0 0 
1290 2 8.51438 -7.96671 -10.3049 0 0 0 
1913 2 9.33955 -8.88322 -10.9731 0 0 0 
1881 2 10.2118 -8.20773 -10.5487 0 0 0 
646 1 11.4168 -8.20696 -10.3929 0 0 0 
1097 2 13.2109 -8.38561 -10.9103 0 0 0 
622 1 14.2341 -8.3199 -10.649 0 0 0 
176 1 4.0921 -7.67144 -10.4878 0 0 0 
1219 2 5.0074 -6.82904 -10.506 0 0 0 
541 1 6.43713 -6.78255 -11.0502 0 0 0 
1628 2 5.9553 -6.92287 -10.0371 0 0 0 
542 1 7.10171 -6.79613 -10.273 0 0 0 
1565 2 8.45582 -6.93813 -10.5506 0 0 0 
340 1 9.7823 -7.21338 -10.8968 0 0 0 
341 1 10.4748 -7.1511 -10.1667 0 0 0 
1848 2 11.449 -7.18542 -10.9179 0 0 0 
1241 2 12.5666 -7.4872 -10.8875 0 0 0 
1817 2 13.5366 -7.24585 -10.434 0 0 0 
623 1 14.5809 -7.42608 -10.2543 0 0 0 
626 1 15.7936 -7.13359 -10.325 0 0 0 
168 1 4.76589 -5.84159 -10.2958 0 0 0 
1085 2 5.73499 -5.95199 -10.8488 0 0 0 
1042 2 7.90972 -5.72265 -10.4867 0 0 0 
903 1 9.80633 -5.60793 -10.8186 0 0 0 
902 1 10.5389 -6.21698 -11.0036 0 0 0 
1935 2 11.6859 -6.14852 -11.0776 0 0 0 
1061 2 11.2843 -6.0334 -10.0614 0 0 0 
1637 2 12.7835 -6.59275 -10.188 0 0 0 
1287 2 13.881 -6.29184 -10.4575 0 0 0 
1851 2 14.8394 -5.66472 -10.4118 0 0 0 
1984 2 14.7242 -6.6408 -11.0507 0 0 0 
426 1 2.05836 -4.73604 -10.4415 0 0 0 
139 1 2.78261 -5.54909 -10.7051 0 0 0 
140 1 3.39253 -4.9284 -10.258 0 0 0 
169 1 4.61641 -5.24709 -11.0312 0 0 0 
1910 2 5.5727 -4.99154 -10.3866 0 0 0 
355 1 6.59451 -4.831 -10.7722 0 0 0 
354 1 7.30277 -4.56924 -10.0762 0 0 0 
904 1 9.10815 -5.13562 -10.3449 0 0 0 
1346 2 10.8586 -5.2038 -10.5175 0 0 0 
1262 2 11.8267 -4.77184 -10.2782 0 0 0 
1021 2 12.9961 -5.50368 -10.3947 0 0 0 
1880 2 13.8756 -4.95519 -10.4596 0 0 0 
606 1 14.8386 -4.50231 -10.9938 0 0 0 
1217 2 16.0323 -5.26426 -10.0272 0 0 0 
990 1 16.7014 -4.59524 -10.6705 0 0 0 
991 1 17.1093 -5.36801 -10.1667 0 0 0 
1239 2 1.70297 -3.96643 -10.9283 0 0 0 
1477 2 2.60857 -3.85461 -10.3039 0 0 0 
1755 2 4.50157 -4.20772 -10.691 0 0 0 
1711 2 7.74879 -3.48902 -10.044 0 0 0 
905 1 8.97974 -4.15099 -10.3827 0 0 0 
813 1 10.2107 -3.6923 -10.7235 0 0 0 
1663 2 11.1183 -4.12989 -10.9732 0 0 0 
1840 2 11.9419 -3.53781 -10.135 0 0 0 
805 1 12.6439 -3.77971 -10.8464 0 0 0 
804 1 12.8823 -4.22364 -10.0159 0 0 0 
1546 2 13.6283 -4.1223 -11.0342 0 0 0 
1950 2 15.0084 -3.35721 -10.6681 0 0 0 
605 1 15.0517 -4.3408 -10.0275 0 0 0 
989 1 16.4906 -3.70167 -10.563 0 0 0 
362 1 2.86865 -2.73177 -10.1805 0 0 0 
533 1 3.61905 -3.24224 -10.701 0 0 0 
1059 2 5.44485 -3.10649 -10.7689 0 0 0 
532 1 4.46741 -2.83755 -10.5747 0 0 0 
531 1 5.08191 -2.27732 -10.061 0 0 0 
1459 2 6.10324 -2.23615 -10.9835 0 0 0 
211 1 6.56536 -3.26975 -10.3222 0 0 0 
210 1 7.10835 -2.73461 -10.8402 0 0 0 
906 1 8.7056 -3.2922 -10.4821 0 0 0 
1933 2 9.54167 -2.73004 -10.1815 0 0 0 
1812 2 10.8958 -2.93773 -10.2794 0 0 0 
1575 2 12.6863 -2.38829 -10.2173 0 0 0 
1662 2 13.3889 -3.21059 -10.3009 0 0 0 
1293 2 14.1401 -2.52235 -10.2421 0 0 0 
987 1 15.5 -2.25944 -10.3169 0 0 0 
988 1 16.2884 -2.80249 -10.2749 0 0 0 
565 1 17.7675 -2.77124 -10.9896 0 0 0 
564 1 17.4723 -2.59044 -10.1146 0 0 0 
1821 2 2.55181 -1.55942 -10.7437 0 0 0 
361 1 3.59241 -2.13247 -10.4434 0 0 0 
360 1 4.38159 -1.79971 -10.8565 0 0 0 
1713 2 5.48529 -1.2297 -10.6791 0 0 0 
1707 2 6.81991 -1.36667 -10.4989 0 0 0 
1610 2 8.08081 -1.77904 -10.5725 0 0 0 
597 1 9.50073 -1.43645 -10.9225 0 0 0 
598 1 10.1965 -1.71605 -10.3039 0 0 0 
1409 2 11.4877 -1.90208 -10.6295 0 0 0 
774 1 13.253 -1.68919 -10.9588 0 0 0 
775 1 12.8465 -1.20208 -10.2341 0 0 0 
1134 2 14.9633 -1.63389 -11.0841 0 0 0 
1775 2 16.5401 -1.86522 -11.1033 0 0 0 
1793 2 15.9202 -1.12829 -10.6122 0 0 0 
520 1 1.33053 -1.01177 -10.8634 0 0 0 
521 1 1.35707 -0.143667 -10.4677 0 0 0 
1363 2 3.28914 -0.639673 -11.0685 0 0 0 
1194 2 2.40059 -0.244385 -10.0715 0 0 0 
387 1 3.63939 -0.432914 -10.1558 0 0 0 
1002 2 4.57186 -0.71495 -10.2703 0 0 0 
1433 2 6.63692 -0.410325 -11.0355 0 0 0 
410 1 7.60695 -0.162301 -10.8707 0 0 0 
411 1 7.72723 -0.801438 -10.1722 0 0 0 
1226 2 9.91196 -0.369076 -10.0554 0 0 0 
1641 2 10.9741 -0.334274 -10.0551 0 0 0 
1197 2 12.3869 -0.0168591 -10.2847 0 0 0 
1247 2 14.0455 -0.992208 -10.2147 0 0 0 
109 1 14.7972 -0.236111 -11.0557 0 0 0 
522 1 1.35328 0.773872 -10.1974 0 0 0 
1233 2 2.88562 0.388802 -10.6551 0 0 0 
388 1 4.10461 0.166445 -10.8188 0 0 0 