ITEM: TIMESTEP
10000000
ITEM: NUMBER OF ATOMS
1548
ITEM: BOX BOUNDS pp pp pp
-3.0000000000000000e+01 3.0000000000000000e+01
-3.0000000000000000e+01 3.0000000000000000e+01
-3.0000000000000000e+01 3.0000000000000000e+01
ITEM: ATOMS id type x y z ix iy iz 
1470 2 13.3097 -8.35252 -18.1082 0 0 0 
1359 2 12.7329 -16.6954 -17.3745 0 0 0 
1061 2 -5.60385 -15.6573 -17.5431 0 0 0 
1311 2 11.998 -15.7345 -16.8946 0 0 0 
1244 2 -9.34842 -13.8187 -17.3524 0 0 0 
1409 2 -6.20225 -10.1761 -16.9302 0 0 0 
1364 2 -6.15802 -8.0757 -17.0247 0 0 0 
1041 2 -2.20905 0.510443 -17.7318 0 0 0 
1303 2 -1.54616 3.60264 -17.0938 0 0 0 
57 1 11.9396 7.12776 -16.7766 0 0 0 
1154 2 8.72021 16.1385 -17.4124 0 0 0 
1224 2 9.54444 16.6796 -16.7591 0 0 0 
1177 2 1.47476 -17.3915 -15.9148 0 0 0 
1056 2 -1.87113 -0.276996 -16.2329 0 0 0 
606 1 5.90353 -0.767336 -15.8313 0 0 0 
607 1 6.87948 -0.635641 -15.9081 0 0 0 
608 1 7.47781 0.0932811 -15.7703 0 0 0 
609 1 7.78132 0.969533 -16.2001 0 0 0 
1097 2 17.7216 0.0497074 -16.4546 0 0 0 
1531 2 3.67671 1.66849 -16.4275 0 0 0 
617 1 5.89715 1.78407 -15.854 0 0 0 
610 1 7.6051 1.8952 -16.0099 0 0 0 
616 1 6.34292 2.61934 -15.9191 0 0 0 
611 1 8.22129 2.51369 -15.6161 0 0 0 
615 1 6.44862 3.55555 -16.0416 0 0 0 
614 1 7.10447 4.26669 -16.351 0 0 0 
613 1 7.85666 4.12349 -15.8431 0 0 0 
58 1 11.8628 6.26874 -16.2241 0 0 0 
1229 2 5.84654 6.86195 -15.6903 0 0 0 
1298 2 -14.7513 8.6836 -16.5398 0 0 0 
55 1 12.2086 8.64352 -15.686 0 0 0 
56 1 12.1079 7.94137 -16.3425 0 0 0 
1024 2 -13.3711 11.4251 -16.3802 0 0 0 
1260 2 15.1385 16.6462 -15.9644 0 0 0 
1529 2 7.02462 -17.2926 -15.1693 0 0 0 
1092 2 -17.4155 -11.5359 -14.7554 0 0 0 
264 1 10.6352 -5.85656 -14.9141 0 0 0 
265 1 10.9611 -4.95454 -14.8383 0 0 0 
602 1 6.77409 -3.51168 -14.8459 0 0 0 
266 1 11.3325 -4.14252 -14.5336 0 0 0 
604 1 5.64262 -2.28818 -15.4256 0 0 0 
603 1 6.03655 -2.93063 -14.8665 0 0 0 
605 1 5.23716 -1.35916 -15.5075 0 0 0 
619 1 5.79731 0.336238 -14.5062 0 0 0 
618 1 5.61618 1.03636 -15.1458 0 0 0 
1027 2 6.89809 1.3817 -15.3976 0 0 0 
1410 2 12.0382 1.42404 -15.0401 0 0 0 
612 1 8.39589 3.4736 -15.4121 0 0 0 
1312 2 5.97939 6.44157 -14.5194 0 0 0 
59 1 11.8013 5.77071 -15.3374 0 0 0 
60 1 12.259 5.60067 -14.4903 0 0 0 
1377 2 -10.9765 6.97818 -15.1846 0 0 0 
1417 2 14.2807 6.71754 -15.1979 0 0 0 
1096 2 4.97764 7.88079 -15.5492 0 0 0 
54 1 11.7503 8.64324 -14.8179 0 0 0 
53 1 10.851 8.98467 -14.6928 0 0 0 
1367 2 2.77223 -15.8179 -14.3733 0 0 0 
1078 2 1.9131 -6.63231 -13.9264 0 0 0 
262 1 9.43865 -6.65895 -13.6848 0 0 0 
263 1 10.0637 -6.22731 -14.2463 0 0 0 
267 1 11.5865 -4.22158 -13.6481 0 0 0 
601 1 7.35697 -2.93448 -14.3126 0 0 0 
600 1 7.48827 -2.24714 -13.6539 0 0 0 
588 1 14.5173 -1.3347 -13.3723 0 0 0 
1356 2 15.5741 -1.18349 -14.3876 0 0 0 
1195 2 12.9076 -0.185494 -13.4359 0 0 0 
620 1 6.26026 0.0401777 -13.7552 0 0 0 
1240 2 -9.3998 3.62329 -13.7444 0 0 0 
44 1 6.52063 4.66841 -13.8911 0 0 0 
43 1 6.31835 5.50321 -13.5325 0 0 0 
45 1 7.34066 5.04849 -13.6057 0 0 0 
1291 2 12.3582 4.53399 -13.8908 0 0 0 
46 1 7.87125 5.82695 -13.4259 0 0 0 
61 1 12.3474 5.93465 -13.5653 0 0 0 
1073 2 1.34348 8.42666 -14.0929 0 0 0 
50 1 8.24086 9.17365 -13.6745 0 0 0 
51 1 9.24876 9.4454 -13.7114 0 0 0 
52 1 10.1412 9.16006 -14.1074 0 0 0 
1184 2 12.9524 9.57104 -14.4206 0 0 0 
1439 2 17.4873 -16.7863 -12.3175 0 0 0 
1103 2 12.04 -14.0413 -12.4657 0 0 0 
1490 2 -12.0184 -10.1398 -13.3207 0 0 0 
1250 2 12.0743 -9.32846 -12.7372 0 0 0 
272 1 10.4193 -8.35182 -12.849 0 0 0 
261 1 8.79377 -7.14436 -13.1995 0 0 0 
260 1 8.23517 -7.72432 -12.7233 0 0 0 
271 1 11.041 -7.63959 -13.0637 0 0 0 
270 1 11.7581 -6.9351 -13.0079 0 0 0 
1133 2 10.7506 -6.57173 -13.0387 0 0 0 
269 1 11.7811 -5.94009 -13.139 0 0 0 
1450 2 9.99439 -5.13337 -12.936 0 0 0 
268 1 11.8217 -4.9458 -13.09 0 0 0 
1444 2 11.9385 -2.49965 -12.2658 0 0 0 
18 1 1.99246 -1.54369 -12.6126 0 0 0 
599 1 7.76416 -1.5517 -13.0959 0 0 0 
587 1 15.3876 -1.7735 -13.2955 0 0 0 
586 1 15.921 -1.65378 -12.4587 0 0 0 
1512 2 -8.2868 -1.0974 -12.7882 0 0 0 
1340 2 -6.68743 -0.527994 -12.7961 0 0 0 
20 1 0.202434 -0.975654 -12.6233 0 0 0 
19 1 1.2063 -1.04727 -12.5986 0 0 0 
1481 2 6.40987 -1.01512 -13.2296 0 0 0 
598 1 8.41569 -0.978075 -12.6105 0 0 0 
589 1 14.0613 -0.419937 -13.2808 0 0 0 
621 1 6.42993 0.027498 -12.8523 0 0 0 
590 1 13.8716 0.465494 -12.9734 0 0 0 
1114 2 -10.0175 1.17923 -13.0372 0 0 0 
677 1 -9.57776 2.3181 -12.647 0 0 0 
676 1 -8.88572 2.52348 -13.2783 0 0 0 
675 1 -8.08304 2.99067 -13.0425 0 0 0 
674 1 -7.34817 3.2783 -12.6101 0 0 0 
673 1 -6.42716 3.02521 -12.2769 0 0 0 
167 1 1.08594 2.82687 -12.7033 0 0 0 
171 1 -1.93174 4.22648 -12.3736 0 0 0 
170 1 -1.29097 4.27905 -13.1386 0 0 0 
169 1 -0.382153 4.02582 -12.9761 0 0 0 
168 1 0.30733 3.35679 -12.8634 0 0 0 
1079 2 14.7158 3.76516 -13.0162 0 0 0 
7 1 7.42096 4.86585 -12.5614 0 0 0 
6 1 8.12273 5.53086 -12.2635 0 0 0 
1062 2 2.51398 5.68346 -12.7209 0 0 0 
42 1 6.00378 5.89028 -12.6334 0 0 0 
1001 2 6.9831 6.13296 -12.9591 0 0 0 
47 1 7.87547 6.65344 -12.7757 0 0 0 
62 1 12.3528 6.07102 -12.5596 0 0 0 
1520 2 15.0401 5.89296 -12.2344 0 0 0 
48 1 7.78944 7.62433 -12.8128 0 0 0 
1348 2 -10.2121 8.20115 -12.3365 0 0 0 
49 1 7.80962 8.6213 -12.9271 0 0 0 
1517 2 17.0747 16.3365 -12.8833 0 0 0 
1270 2 -5.93861 -15.7283 -11.2349 0 0 0 
285 1 4.37176 -14.0049 -11.4448 0 0 0 
284 1 5.21244 -13.7113 -11.5713 0 0 0 
283 1 6.14884 -13.7435 -11.7615 0 0 0 
282 1 7.13068 -13.7219 -11.6184 0 0 0 
339 1 6.77127 -10.7281 -11.7328 0 0 0 
340 1 7.54993 -10.2337 -11.3574 0 0 0 
274 1 10.1547 -9.33766 -11.1692 0 0 0 
1235 2 -9.54573 -7.8979 -11.3402 0 0 0 
273 1 10.2064 -8.83205 -11.9894 0 0 0 
879 1 3.13997 -6.70664 -11.9254 0 0 0 
880 1 3.20089 -7.31727 -11.1139 0 0 0 
259 1 8.06002 -7.77258 -11.7274 0 0 0 
364 1 12.8311 -7.45633 -11.4305 0 0 0 
878 1 3.74689 -5.93249 -11.9533 0 0 0 
365 1 12.911 -6.50181 -11.5706 0 0 0 
366 1 12.9447 -5.5913 -11.2868 0 0 0 
877 1 4.19477 -5.13256 -11.5928 0 0 0 
1208 2 1.20507 -4.31098 -11.3178 0 0 0 
22 1 -0.0297599 -2.67444 -11.9066 0 0 0 
23 1 -0.371551 -3.12172 -11.1537 0 0 0 
21 1 -0.105475 -1.72357 -12.1133 0 0 0 
17 1 2.57692 -1.90007 -11.8548 0 0 0 
16 1 3.35847 -1.57885 -11.5213 0 0 0 
597 1 8.72231 -1.66821 -12.0382 0 0 0 
596 1 9.67716 -1.69777 -12.033 0 0 0 
595 1 10.5044 -1.21304 -11.5714 0 0 0 
546 1 0.759871 -0.145828 -11.993 0 0 0 
547 1 1.68636 -0.438839 -11.8529 0 0 0 
622 1 6.59429 -0.407423 -12.0739 0 0 0 
623 1 7.09262 -0.641152 -11.3157 0 0 0 
593 1 12.1988 -0.560232 -11.3911 0 0 0 
594 1 11.4252 -1.07271 -11.5091 0 0 0 
592 1 13.1591 -0.585879 -11.6331 0 0 0 
585 1 16.2701 -1.01192 -11.7086 0 0 0 
584 1 15.9999 -0.0742693 -11.5331 0 0 0 
545 1 0.163719 0.081171 -11.3208 0 0 0 
1330 2 5.9698 0.287262 -11.7141 0 0 0 
591 1 13.6383 0.0899613 -12.1074 0 0 0 
582 1 14.657 1.06712 -11.718 0 0 0 
583 1 15.5911 0.680073 -11.8147 0 0 0 
678 1 -10.1744 1.94833 -11.9697 0 0 0 
1337 2 -4.86201 1.24784 -11.4511 0 0 0 
11 1 5.37178 1.85279 -11.5263 0 0 0 
580 1 13.1893 1.67727 -11.2031 0 0 0 
581 1 13.7391 1.21672 -11.8462 0 0 0 
672 1 -5.76734 2.46394 -11.5847 0 0 0 
166 1 1.80717 2.94863 -12.0729 0 0 0 
165 1 2.50612 2.69049 -11.4469 0 0 0 
10 1 5.74577 2.78887 -11.5922 0 0 0 
1089 2 12.5014 2.44533 -12.1798 0 0 0 
1159 2 13.067 2.96465 -11.1923 0 0 0 
172 1 -2.20263 4.24263 -11.4267 0 0 0 
9 1 6.28997 3.50243 -11.9795 0 0 0 
8 1 6.91185 4.24871 -11.9387 0 0 0 
40 1 4.83805 5.21874 -11.318 0 0 0 
63 1 12.8429 5.30466 -12.2158 0 0 0 
64 1 13.7115 4.86585 -12.0177 0 0 0 
65 1 14.4065 4.47522 -11.5683 0 0 0 
41 1 5.59683 5.60636 -11.813 0 0 0 
1093 2 7.28326 6.54478 -11.7593 0 0 0 
5 1 8.24608 6.13588 -11.5249 0 0 0 
4 1 8.37684 7.02004 -11.1646 0 0 0 
1509 2 9.05943 6.70417 -12.186 0 0 0 
1361 2 13.6258 10.4373 -12.0505 0 0 0 
288 1 2.09475 -13.6614 -10.2507 0 0 0 
287 1 2.92634 -14.2137 -10.2528 0 0 0 
286 1 3.64323 -14.1124 -10.9023 0 0 0 
281 1 7.95076 -13.7086 -11.0511 0 0 0 
280 1 8.94671 -13.7962 -10.8722 0 0 0 
289 1 2.01221 -12.7317 -10.4498 0 0 0 
1374 2 5.65602 -13.3055 -10.6296 0 0 0 
279 1 9.54116 -13.0832 -10.5223 0 0 0 
290 1 1.90815 -11.8541 -10.8634 0 0 0 
348 1 5.98029 -11.3604 -10.1961 0 0 0 
1125 2 8.29403 -11.22 -10.3276 0 0 0 
1463 2 -16.0378 -10.8956 -10.9212 0 0 0 
291 1 1.88289 -10.9551 -10.5299 0 0 0 
1421 2 5.05398 -10.6422 -10.1087 0 0 0 
338 1 5.9672 -10.5497 -11.1015 0 0 0 
1455 2 7.15839 -10.7773 -10.256 0 0 0 
341 1 8.38693 -10.2162 -10.8978 0 0 0 
342 1 8.75661 -10.1244 -10.0404 0 0 0 
360 1 12.9048 -10.724 -10.2383 0 0 0 
337 1 5.89879 -9.86007 -10.4332 0 0 0 
275 1 10.1698 -9.89626 -10.3898 0 0 0 
361 1 12.6881 -9.82605 -10.4988 0 0 0 
1478 2 -0.983856 -8.65893 -10.7366 0 0 0 
1188 2 4.56985 -8.01143 -10.1479 0 0 0 
258 1 7.78971 -8.03008 -10.7926 0 0 0 
363 1 12.7214 -7.93031 -10.6354 0 0 0 
362 1 12.6047 -8.85103 -10.5771 0 0 0 
651 1 -2.43761 -7.52394 -10.088 0 0 0 
650 1 -1.5187 -7.31643 -10.2908 0 0 0 
649 1 -0.560517 -7.49803 -10.4638 0 0 0 
648 1 0.346407 -7.63215 -10.8504 0 0 0 
647 1 1.23745 -7.38836 -10.3905 0 0 0 
881 1 3.20321 -7.71458 -10.2964 0 0 0 
1113 2 13.5864 -7.19117 -10.5542 0 0 0 
646 1 1.61095 -6.58339 -10.805 0 0 0 
645 1 2.20777 -5.81023 -11.0372 0 0 0 
1032 2 2.95206 -6.38203 -10.6594 0 0 0 
367 1 12.7161 -5.64756 -10.3483 0 0 0 
644 1 2.61039 -4.98366 -11.094 0 0 0 
105 1 2.7991 -5.46586 -10.0706 0 0 0 
876 1 4.18425 -4.73567 -10.7111 0 0 0 
24 1 -0.316654 -3.6188 -10.2693 0 0 0 
25 1 0.604836 -4.0583 -10.2186 0 0 0 
643 1 2.37767 -4.0758 -11.0862 0 0 0 
150 1 6.46402 -4.23566 -10.0711 0 0 0 
1110 2 1.41065 -3.26007 -10.6761 0 0 0 
642 1 2.4702 -3.16736 -11.0352 0 0 0 
1355 2 3.82931 -3.03305 -10.7624 0 0 0 
641 1 2.53311 -2.2133 -10.8132 0 0 0 
640 1 2.80962 -1.56081 -10.1572 0 0 0 
15 1 4.00229 -1.22576 -10.943 0 0 0 
1042 2 9.37296 -1.92618 -11.0525 0 0 0 
1392 2 10.4441 -1.60149 -10.5332 0 0 0 
1476 2 -3.14294 -0.4352 -10.4532 0 0 0 
548 1 1.73176 -1.09779 -11.0905 0 0 0 
549 1 1.91068 -0.999733 -10.2041 0 0 0 
14 1 4.44186 -0.347924 -10.7345 0 0 0 
1183 2 5.99065 -0.592464 -10.3195 0 0 0 
1071 2 7.70683 -0.116824 -10.0106 0 0 0 
624 1 7.83514 -0.863057 -10.7987 0 0 0 
670 1 -5.20018 1.05106 -10.3997 0 0 0 
544 1 0.382505 0.0129631 -10.3932 0 0 0 
1074 2 5.39861 0.243795 -10.6191 0 0 0 
13 1 4.52052 0.595971 -10.4082 0 0 0 
1314 2 6.6689 0.554014 -10.7883 0 0 0 
1316 2 13.4356 0.915253 -10.5733 0 0 0 
679 1 -10.2489 1.54775 -11.1071 0 0 0 
680 1 -10.2787 1.36033 -10.1781 0 0 0 
671 1 -5.46277 1.87922 -10.8849 0 0 0 
12 1 4.82833 1.24183 -11.0128 0 0 0 
1510 2 5.89279 1.13763 -11.035 0 0 0 
35 1 6.34522 1.62671 -10.1553 0 0 0 
579 1 12.9919 1.98244 -10.345 0 0 0 
1346 2 14.0533 1.76103 -10.7106 0 0 0 
1098 2 16.0085 1.45779 -10.1587 0 0 0 
164 1 2.66917 2.78624 -10.5011 0 0 0 
1489 2 3.89464 2.56769 -10.1135 0 0 0 
37 1 5.17059 3.05224 -10.4462 0 0 0 
36 1 6.0089 2.54426 -10.4675 0 0 0 
1432 2 7.20092 2.24128 -10.4869 0 0 0 
68 1 14.8171 2.26112 -10.1379 0 0 0 
67 1 14.9711 3.19218 -10.2798 0 0 0 
173 1 -2.65077 4.39722 -10.5631 0 0 0 
38 1 4.49111 3.70624 -10.4691 0 0 0 
573 1 8.8009 3.57566 -10.4908 0 0 0 
66 1 14.858 4.01687 -10.7989 0 0 0 
174 1 -3.25656 5.05085 -10.0377 0 0 0 
39 1 4.35097 4.56464 -10.9708 0 0 0 
3 1 8.78582 7.73623 -10.6052 0 0 0 
1155 2 13.8738 10.904 -11.0667 0 0 0 
1289 2 -2.9148 12.4056 -10.3433 0 0 0 
1017 2 0.552131 -16.0854 -9.94769 0 0 0 
1218 2 -17.2345 -14.4257 -9.57543 0 0 0 
356 1 11.9647 -14.0627 -9.05061 0 0 0 
357 1 12.4355 -13.5803 -9.71508 0 0 0 
278 1 9.75864 -12.5117 -9.81096 0 0 0 
358 1 12.6443 -12.6691 -9.56488 0 0 0 
349 1 6.65543 -12.002 -9.77668 0 0 0 
297 1 5.81352 -11.7772 -9.07652 0 0 0 
350 1 7.51796 -11.6702 -9.61285 0 0 0 
351 1 8.40221 -11.5912 -9.1685 0 0 0 
277 1 9.9226 -11.5394 -9.57116 0 0 0 
359 1 12.7208 -11.6542 -9.86676 0 0 0 
292 1 2.25432 -10.388 -9.90606 0 0 0 
293 1 2.73473 -10.2497 -9.06225 0 0 0 
1396 2 4.75892 -10.2384 -8.95607 0 0 0 
347 1 6.30385 -10.8385 -9.48783 0 0 0 
346 1 6.94809 -10.3481 -8.97755 0 0 0 
343 1 8.77383 -10.2571 -8.93956 0 0 0 
276 1 10.2284 -10.7227 -9.93418 0 0 0 
329 1 0.980794 -9.08954 -9.07133 0 0 0 
336 1 5.61476 -9.63767 -9.46043 0 0 0 
1464 2 10.7712 -9.84185 -9.43782 0 0 0 
1204 2 -1.79267 -8.29891 -9.71173 0 0 0 
327 1 -0.924381 -8.54466 -8.94749 0 0 0 
1075 2 0.642271 -8.15942 -9.57679 0 0 0 
328 1 0.0615107 -8.82399 -9.06561 0 0 0 
1059 2 3.28334 -8.53612 -9.51624 0 0 0 
1273 2 2.26027 -8.38513 -8.92458 0 0 0 
257 1 7.3894 -8.0054 -9.90896 0 0 0 
256 1 7.0704 -8.13787 -9.04857 0 0 0 
1384 2 9.34213 -7.89117 -9.59011 0 0 0 
653 1 -4.03975 -7.51921 -9.05042 0 0 0 
652 1 -3.22999 -7.39012 -9.53209 0 0 0 
113 1 0.0289883 -7.22323 -9.1472 0 0 0 
114 1 0.9581 -7.23993 -9.21531 0 0 0 
882 1 2.6394 -7.60473 -9.47564 0 0 0 
883 1 3.07269 -6.97868 -8.8966 0 0 0 
1037 2 3.94536 -7.76796 -9.09281 0 0 0 
103 1 4.0253 -6.8848 -9.67426 0 0 0 
102 1 4.93056 -7.14598 -9.6064 0 0 0 
1545 2 7.24234 -6.97734 -9.16045 0 0 0 
1306 2 2.1514 -6.44471 -9.8895 0 0 0 
107 1 1.44086 -5.59608 -8.96401 0 0 0 
104 1 3.5631 -6.0251 -9.79634 0 0 0 
148 1 6.97561 -5.78789 -9.09003 0 0 0 
368 1 12.5368 -5.65846 -9.36927 0 0 0 
110 1 -1.00473 -5.48776 -9.13895 0 0 0 
109 1 -0.0394407 -5.26487 -9.20622 0 0 0 
108 1 0.776697 -5.49789 -9.60697 0 0 0 
106 1 2.05003 -5.13488 -9.54259 0 0 0 
1063 2 2.87605 -5.40294 -8.92653 0 0 0 
875 1 4.23562 -4.56932 -9.72481 0 0 0 
1347 2 5.8382 -4.96591 -9.30256 0 0 0 
149 1 6.77749 -5.1009 -9.78824 0 0 0 
26 1 1.55014 -4.17041 -9.98267 0 0 0 
27 1 2.18581 -3.61485 -9.46457 0 0 0 
28 1 3.10132 -3.35622 -9.66634 0 0 0 
874 1 4.69931 -3.91976 -9.14261 0 0 0 
1313 2 5.36333 -3.44198 -9.74234 0 0 0 
151 1 6.35375 -3.63783 -9.36706 0 0 0 
1413 2 -5.84888 -2.97042 -9.14539 0 0 0 
29 1 3.81993 -2.77659 -9.52246 0 0 0 
550 1 1.8463 -1.54061 -9.44355 0 0 0 
1066 2 3.12428 -2.01634 -9.0393 0 0 0 
30 1 4.57942 -2.0964 -9.34896 0 0 0 
1009 2 5.86355 -1.36103 -9.29426 0 0 0 
1025 2 6.8259 -1.91983 -8.95062 0 0 0 
625 1 7.94403 -1.1784 -9.901 0 0 0 
72 1 14.5579 -1.21297 -8.94092 0 0 0 
667 1 -5.8706 -1.05329 -9.07877 0 0 0 
668 1 -5.10664 -0.392951 -9.2233 0 0 0 
542 1 1.23842 -0.64268 -8.88997 0 0 0 
1051 2 2.07381 -0.270335 -9.37374 0 0 0 
639 1 3.16664 -0.946418 -9.47673 0 0 0 
1461 2 4.28319 -0.94291 -9.74784 0 0 0 
626 1 7.67495 -0.982962 -8.9982 0 0 0 
71 1 14.528 -0.345418 -9.33738 0 0 0 
669 1 -5.08615 0.245461 -9.95451 0 0 0 
543 1 0.861312 0.054138 -9.48883 0 0 0 
638 1 3.20266 0.0173224 -9.30895 0 0 0 
161 1 2.91743 1.043 -9.04805 0 0 0 
637 1 3.94832 0.663522 -9.24293 0 0 0 
33 1 5.36626 0.268363 -9.46083 0 0 0 
34 1 6.04596 0.902412 -9.62219 0 0 0 
70 1 14.2955 0.568013 -9.50658 0 0 0 
681 1 -10.7265 1.32304 -9.38136 0 0 0 
162 1 2.99306 1.92422 -9.40245 0 0 0 
636 1 4.12602 1.4819 -9.65835 0 0 0 
635 1 4.35539 2.12276 -9.06025 0 0 0 
1345 2 5.07642 1.57626 -9.88605 0 0 0 
69 1 14.4445 1.46868 -9.78971 0 0 0 
163 1 2.64468 2.80755 -9.5428 0 0 0 
574 1 9.51471 3.32377 -9.87938 0 0 0 
577 1 11.9232 2.92435 -9.05228 0 0 0 
578 1 12.5269 2.28432 -9.5515 0 0 0 
571 1 7.40865 4.14756 -9.24656 0 0 0 
572 1 8.00504 3.74451 -9.96478 0 0 0 
575 1 10.3249 3.57593 -9.30375 0 0 0 
176 1 -4.87433 5.47493 -9.03307 0 0 0 
175 1 -4.02132 5.14021 -9.4646 0 0 0 
2 1 8.42511 8.03574 -9.78908 0 0 0 
1284 2 -16.7217 9.47407 -9.32687 0 0 0 
1238 2 -0.559682 -15.6127 -7.85362 0 0 0 
1115 2 11.0783 -15.0532 -8.34456 0 0 0 
355 1 11.1748 -13.5201 -8.86426 0 0 0 
354 1 10.7536 -12.6945 -8.6337 0 0 0 
295 1 4.08497 -11.2369 -8.55916 0 0 0 
296 1 4.99916 -11.483 -8.83325 0 0 0 
298 1 6.37575 -11.7073 -8.32617 0 0 0 
353 1 9.97302 -12.1787 -8.54115 0 0 0 
352 1 9.26066 -11.5406 -8.59083 0 0 0 
294 1 3.31061 -10.6664 -8.45496 0 0 0 
334 1 5.17398 -10.0757 -7.89079 0 0 0 
1369 2 5.80865 -10.8157 -8.56267 0 0 0 
1283 2 7.71546 -11.0003 -8.50054 0 0 0 
344 1 8.33589 -10.1884 -7.9999 0 0 0 
330 1 1.8036 -9.35103 -8.7771 0 0 0 
331 1 2.73214 -9.48461 -8.26347 0 0 0 
332 1 3.54216 -9.15732 -7.88661 0 0 0 
333 1 4.47159 -9.43364 -7.91307 0 0 0 
335 1 5.85578 -9.73759 -8.51261 0 0 0 
345 1 7.4524 -9.99766 -8.17987 0 0 0 
654 1 -4.05684 -8.01368 -8.20714 0 0 0 
1072 2 -3.3096 -8.60956 -8.78291 0 0 0 
1002 2 -2.45087 -7.7839 -8.78544 0 0 0 
1338 2 1.25603 -8.45742 -8.0029 0 0 0 
1442 2 3.3285 -8.24724 -8.32254 0 0 0 
116 1 2.25756 -7.972 -7.93632 0 0 0 
1150 2 5.2243 -8.7983 -8.76979 0 0 0 
100 1 5.43536 -7.92001 -7.98961 0 0 0 
1217 2 6.53863 -8.47886 -8.02504 0 0 0 
255 1 7.82568 -7.91483 -8.45027 0 0 0 
326 1 -1.2589 -7.70349 -8.43626 0 0 0 
115 1 1.59405 -7.60249 -8.6049 0 0 0 
1310 2 3.95666 -7.1212 -8.23518 0 0 0 
101 1 5.0349 -7.47123 -8.72669 0 0 0 
1518 2 5.66574 -6.82533 -8.16429 0 0 0 
1087 2 6.70882 -7.5015 -8.00804 0 0 0 
111 1 -1.33321 -6.06332 -8.39678 0 0 0 
1499 2 -0.0574833 -5.81452 -8.10813 0 0 0 
112 1 -0.646105 -6.60644 -8.83036 0 0 0 
1279 2 0.92446 -6.48246 -8.0732 0 0 0 
1433 2 2.04168 -6.29518 -7.84885 0 0 0 
884 1 3.13838 -6.49147 -8.00238 0 0 0 
1274 2 4.05024 -5.86012 -8.74315 0 0 0 
886 1 4.79251 -6.03951 -7.908 0 0 0 
147 1 6.5435 -6.36047 -8.38919 0 0 0 
887 1 5.58429 -5.67168 -8.38732 0 0 0 
661 1 -6.25565 -4.57578 -7.8725 0 0 0 
1047 2 -0.907492 -4.72221 -8.45477 0 0 0 
1202 2 0.520661 -4.86908 -7.83221 0 0 0 
139 1 1.56385 -4.62413 -7.85152 0 0 0 
140 1 2.52171 -5.01399 -7.95693 0 0 0 
141 1 3.49785 -5.12678 -7.81497 0 0 0 
1225 2 4.69272 -5.06581 -8.22407 0 0 0 
1095 2 6.54431 -4.65352 -8.59441 0 0 0 
369 1 12.6096 -5.44963 -8.44505 0 0 0 
370 1 12.2827 -4.5465 -8.44648 0 0 0 
1022 2 -6.40331 -3.83068 -8.77003 0 0 0 
663 1 -5.43329 -3.42388 -8.05566 0 0 0 
662 1 -5.42562 -4.29458 -8.37362 0 0 0 
317 1 -3.53686 -4.2262 -8.42758 0 0 0 
318 1 -3.88977 -3.48026 -7.81309 0 0 0 
316 1 -2.68301 -4.26125 -8.13058 0 0 0 
138 1 1.03982 -3.92791 -8.40616 0 0 0 
137 1 0.0838924 -4.00443 -8.76225 0 0 0 
1431 2 3.07079 -4.09341 -8.27291 0 0 0 
872 1 5.19068 -3.42027 -7.87816 0 0 0 
1322 2 5.55558 -4.28836 -8.50664 0 0 0 
1331 2 6.28967 -3.48438 -7.90967 0 0 0 
371 1 11.9923 -3.68382 -7.98338 0 0 0 
665 1 -6.63167 -2.60719 -8.4047 0 0 0 
135 1 -0.989385 -2.43203 -8.66255 0 0 0 
136 1 -0.534041 -3.3291 -8.79786 0 0 0 
552 1 2.47846 -2.94924 -8.05811 0 0 0 
873 1 4.80543 -3.08766 -8.7192 0 0 0 
153 1 5.90654 -2.24221 -8.52416 0 0 0 
152 1 6.5813 -2.92394 -8.7814 0 0 0 
373 1 10.1345 -3.17917 -7.85737 0 0 0 
1106 2 14.4819 -3.09744 -8.3805 0 0 0 
666 1 -6.37573 -1.6957 -8.6279 0 0 0 
134 1 -1.88024 -2.18368 -8.72527 0 0 0 
133 1 -1.96184 -1.92302 -7.7803 0 0 0 
551 1 2.01893 -2.111 -8.51726 0 0 0 
1258 2 3.9393 -1.49158 -8.05888 0 0 0 
31 1 4.74073 -1.24964 -8.88307 0 0 0 
1426 2 5.12437 -1.21763 -7.84045 0 0 0 
154 1 6.25603 -1.61129 -7.87732 0 0 0 
73 1 14.5806 -1.83616 -8.04413 0 0 0 
541 1 1.56211 -1.05324 -8.11471 0 0 0 
1320 2 2.57889 -0.874128 -8.66211 0 0 0 
1174 2 3.74369 -0.600897 -8.63529 0 0 0 
32 1 5.00476 -0.400755 -8.84824 0 0 0 
627 1 7.77075 -0.250099 -8.30258 0 0 0 
1381 2 -0.215859 0.671485 -8.63124 0 0 0 
160 1 2.88836 0.579584 -8.18251 0 0 0 
682 1 -10.9813 1.54447 -8.44338 0 0 0 
1018 2 3.73335 1.74897 -8.13934 0 0 0 
1175 2 14.7915 1.86982 -8.88193 0 0 0 
683 1 -10.7595 2.3194 -7.86161 0 0 0 
634 1 4.84987 2.27551 -8.30915 0 0 0 
576 1 11.0084 3.07873 -8.88035 0 0 0 
570 1 7.56808 4.31217 -8.27396 0 0 0 
177 1 -5.2537 6.31401 -8.68126 0 0 0 
180 1 -7.43844 7.67956 -7.80841 0 0 0 
179 1 -6.60021 7.27324 -7.89716 0 0 0 
178 1 -5.76327 6.87613 -7.97619 0 0 0 
1 1 8.43931 7.92056 -8.85214 0 0 0 
1474 2 1.82066 15.572 -8.44169 0 0 0 
93 1 3.23189 -11.5404 -7.3688 0 0 0 
94 1 4.11772 -11.881 -7.29489 0 0 0 
1530 2 6.41788 -11.4165 -6.76569 0 0 0 
299 1 7.01356 -11.4608 -7.6995 0 0 0 
300 1 7.82654 -11.2524 -7.37365 0 0 0 
249 1 9.76855 -11.9095 -6.84995 0 0 0 
250 1 9.42142 -11.1214 -7.27105 0 0 0 
92 1 2.83992 -10.7118 -6.95541 0 0 0 
1219 2 3.79355 -10.6457 -7.4399 0 0 0 
1060 2 4.90007 -10.9953 -7.57792 0 0 0 
1112 2 5.89076 -10.747 -7.59648 0 0 0 
97 1 5.9981 -10.1366 -6.69271 0 0 0 
1429 2 7.10024 -10.4855 -6.75689 0 0 0 
301 1 8.14749 -10.4665 -7.0389 0 0 0 
251 1 9.53691 -10.2041 -7.03986 0 0 0 
91 1 3.09507 -9.77314 -6.84032 0 0 0 
1318 2 4.79605 -9.84925 -6.78636 0 0 0 
1117 2 5.5468 -8.97142 -7.75911 0 0 0 
98 1 6.22958 -9.17974 -6.87406 0 0 0 
1513 2 7.21859 -8.91099 -7.30817 0 0 0 
252 1 8.86058 -9.42594 -6.83879 0 0 0 
302 1 7.80837 -9.62026 -6.68575 0 0 0 
656 1 -5.27522 -7.98437 -6.90156 0 0 0 
655 1 -4.44019 -8.12171 -7.33608 0 0 0 
850 1 0.675368 -7.9323 -7.31639 0 0 0 
1013 2 1.50935 -8.52304 -6.77333 0 0 0 
117 1 2.44611 -8.07311 -6.918 0 0 0 
1543 2 4.29118 -8.35601 -7.69224 0 0 0 
99 1 5.93379 -8.25447 -7.14055 0 0 0 
254 1 8.26312 -7.9327 -7.56142 0 0 0 
253 1 8.33229 -8.67936 -6.97161 0 0 0 
1453 2 17.0357 -7.98478 -7.56263 0 0 0 
657 1 -5.89155 -7.237 -6.96173 0 0 0 
325 1 -1.57462 -7.06087 -7.76211 0 0 0 
792 1 -0.620496 -6.98059 -7.27528 0 0 0 
849 1 1.41195 -7.25681 -7.35152 0 0 0 
848 1 2.43129 -7.01094 -7.1218 0 0 0 
1083 2 3.43524 -7.57962 -7.16375 0 0 0 
1458 2 5.14328 -7.02041 -6.97627 0 0 0 
1266 2 7.88998 -6.91469 -6.78363 0 0 0 
324 1 -2.00605 -6.26886 -7.14745 0 0 0 
794 1 0.808663 -5.92763 -7.09473 0 0 0 
793 1 0.236012 -6.62653 -7.33852 0 0 0 
1434 2 1.76425 -6.31037 -6.69829 0 0 0 
1064 2 2.57595 -5.76443 -7.04053 0 0 0 
847 1 3.22172 -6.57608 -6.77601 0 0 0 
885 1 3.9393 -6.35006 -7.48419 0 0 0 
146 1 6.46148 -6.65984 -7.44956 0 0 0 
1462 2 7.96443 -6.05712 -7.72467 0 0 0 
1176 2 9.1163 -6.16046 -7.59004 0 0 0 
1081 2 10.6 -5.79096 -7.18902 0 0 0 
79 1 12.4416 -5.79272 -6.70923 0 0 0 
78 1 13.3802 -5.57708 -6.98647 0 0 0 
660 1 -6.76217 -5.10956 -7.2399 0 0 0 
1173 2 -1.55233 -5.27133 -7.57648 0 0 0 
314 1 -1.30552 -4.52207 -6.91451 0 0 0 
1088 2 -2.14007 -5.08764 -6.73381 0 0 0 
1058 2 -0.445697 -5.13542 -7.3605 0 0 0 
1333 2 0.330787 -4.75167 -6.72453 0 0 0 
795 1 1.38817 -5.24821 -6.96845 0 0 0 
1030 2 2.2171 -4.53811 -7.01141 0 0 0 
142 1 4.29952 -5.0874 -7.1845 0 0 0 
1263 2 3.34859 -5.01023 -6.73483 0 0 0 
888 1 5.80539 -5.09221 -7.57429 0 0 0 
889 1 6.64009 -4.59062 -7.44296 0 0 0 
1101 2 6.75503 -5.54277 -7.77089 0 0 0 
1425 2 7.56322 -4.91866 -6.96973 0 0 0 
376 1 8.98231 -5.1616 -7.24572 0 0 0 
77 1 14.0677 -4.93575 -7.15663 0 0 0 
319 1 -3.99544 -3.6882 -6.81448 0 0 0 
1160 2 -2.23421 -3.96223 -6.69295 0 0 0 
315 1 -1.82188 -4.23411 -7.68225 0 0 0 
1050 2 -0.284215 -3.92604 -7.50258 0 0 0 
797 1 1.12093 -3.40373 -6.6803 0 0 0 
871 1 5.45657 -3.75983 -7.02988 0 0 0 
536 1 4.47254 -3.65973 -6.897 0 0 0 
890 1 7.32435 -3.82167 -7.44727 0 0 0 
375 1 8.91807 -4.20477 -7.12177 0 0 0 
374 1 9.44805 -3.42424 -7.25556 0 0 0 
372 1 11.0768 -3.45403 -7.74358 0 0 0 
76 1 14.5895 -4.30048 -6.69724 0 0 0 
75 1 14.6144 -3.40412 -7.04864 0 0 0 
664 1 -6.1609 -3.01061 -7.63625 0 0 0 
1065 2 -3.02255 -3.09206 -6.87759 0 0 0 
132 1 -1.83162 -2.64456 -7.10148 0 0 0 
798 1 0.959226 -2.44951 -6.84265 0 0 0 
553 1 2.64325 -3.15149 -7.15636 0 0 0 
537 1 4.05568 -2.85095 -7.22576 0 0 0 
1277 2 5.15413 -2.33545 -7.67326 0 0 0 
1278 2 6.07731 -2.92728 -7.09906 0 0 0 
891 1 7.03393 -3.1854 -6.75522 0 0 0 
74 1 14.8522 -2.64484 -7.58872 0 0 0 
800 1 -0.320118 -1.13518 -6.87097 0 0 0 
799 1 0.520514 -1.61382 -6.95778 0 0 0 
539 1 3.16518 -1.19199 -7.22848 0 0 0 
538 1 3.61555 -2.00557 -7.21507 0 0 0 
540 1 2.30018 -0.942392 -7.57851 0 0 0 
158 1 4.23463 -0.394419 -7.33345 0 0 0 
157 1 4.84882 -0.892171 -6.74791 0 0 0 
156 1 5.73419 -0.503588 -6.87242 0 0 0 
155 1 6.50186 -0.998079 -7.12639 0 0 0 
159 1 3.63177 0.350811 -7.60975 0 0 0 
1368 2 6.56697 0.0929287 -6.91793 0 0 0 
628 1 7.6333 0.360615 -7.59492 0 0 0 
629 1 7.62953 0.884718 -6.76951 0 0 0 
632 1 5.27728 1.86152 -6.73162 0 0 0 
684 1 -10.7956 2.85633 -7.06522 0 0 0 
633 1 4.68067 2.33052 -7.34615 0 0 0 
568 1 7.79983 3.14089 -6.89847 0 0 0 
685 1 -10.5315 3.73598 -6.69948 0 0 0 
569 1 7.88603 3.93694 -7.40081 0 0 0 
687 1 -10.6997 5.13493 -6.91185 0 0 0 
1194 2 -5.0085 5.47557 -7.41622 0 0 0 
718 1 0.833744 5.96385 -6.74108 0 0 0 
719 1 1.48943 6.07232 -7.38076 0 0 0 
720 1 2.3579 6.20572 -7.74313 0 0 0 
721 1 3.30237 6.27764 -7.72505 0 0 0 
722 1 4.12562 5.98994 -7.14439 0 0 0 
723 1 4.94703 5.8015 -6.68349 0 0 0 
181 1 -8.30943 7.90983 -7.27081 0 0 0 
1015 2 9.00808 9.42615 -7.71946 0 0 0 
1152 2 4.33398 11.3464 -7.65603 0 0 0 
1405 2 -12.7591 15.1061 -7.1825 0 0 0 
506 1 6.23646 -13.7411 -5.81941 0 0 0 
507 1 6.83583 -13.0199 -5.66425 0 0 0 
948 1 -5.09337 -11.3685 -5.73364 0 0 0 
95 1 4.71168 -11.4215 -6.62478 0 0 0 
1504 2 6.0001 -12.1497 -6.11132 0 0 0 
508 1 6.96221 -12.0681 -5.62312 0 0 0 
248 1 9.0658 -12.1413 -6.19441 0 0 0 
949 1 -4.28502 -10.9838 -6.15959 0 0 0 
950 1 -3.67314 -10.4837 -5.64066 0 0 0 
96 1 5.36333 -10.8187 -6.43953 0 0 0 
1375 2 5.11723 -10.0958 -5.65248 0 0 0 
119 1 1.84547 -8.92965 -5.67039 0 0 0 
90 1 3.76657 -9.51668 -6.25691 0 0 0 
89 1 4.36591 -9.15479 -5.59238 0 0 0 
1116 2 5.28332 -9.05255 -6.26313 0 0 0 
303 1 7.35298 -9.08379 -6.01101 0 0 0 
1541 2 8.57201 -8.92126 -5.95453 0 0 0 
1162 2 -1.93225 -8.17561 -6.08037 0 0 0 
851 1 0.624462 -8.11701 -6.38855 0 0 0 
118 1 2.45843 -8.3747 -6.0328 0 0 0 
1196 2 3.43894 -8.47855 -5.65999 0 0 0 
306 1 4.7879 -7.85435 -5.95214 0 0 0 
304 1 6.59304 -8.44076 -6.04981 0 0 0 
305 1 5.77511 -7.95002 -6.16201 0 0 0 
1034 2 7.48172 -8.09623 -6.45678 0 0 0 
791 1 -1.32189 -7.16895 -6.64865 0 0 0 
790 1 -1.60559 -7.10223 -5.69875 0 0 0 
1477 2 -0.445245 -6.6755 -5.81723 0 0 0 
1548 2 0.857453 -6.92549 -6.2963 0 0 0 
1350 2 1.82104 -7.39511 -6.26089 0 0 0 
307 1 3.8911 -7.58773 -6.08884 0 0 0 
308 1 3.42712 -6.82954 -5.72542 0 0 0 
145 1 6.17173 -6.81201 -6.48836 0 0 0 
85 1 7.1628 -7.19265 -5.62674 0 0 0 
1344 2 8.62798 -7.74809 -6.44403 0 0 0 
84 1 8.10896 -6.89808 -5.69882 0 0 0 
1256 2 9.2959 -6.88516 -6.44962 0 0 0 
659 1 -6.96355 -5.64492 -6.39025 0 0 0 
658 1 -6.15184 -6.2974 -6.58784 0 0 0 
323 1 -2.64785 -6.18275 -6.40338 0 0 0 
322 1 -3.17742 -5.61713 -5.81591 0 0 0 
1239 2 -1.37067 -6.04308 -6.15924 0 0 0 
1353 2 -0.149225 -5.88765 -6.44572 0 0 0 
310 1 1.49931 -6.37618 -5.59026 0 0 0 
309 1 2.44578 -6.5389 -5.70784 0 0 0 
846 1 3.60792 -5.91431 -6.12543 0 0 0 
144 1 5.54154 -6.07629 -6.54932 0 0 0 
1507 2 4.47442 -6.46593 -6.44444 0 0 0 
1057 2 5.4785 -6.66635 -5.67293 0 0 0 
378 1 7.62835 -5.90555 -6.50903 0 0 0 
377 1 8.54268 -5.71258 -6.62166 0 0 0 
83 1 8.86077 -6.30286 -5.71042 0 0 0 
82 1 9.79377 -6.28991 -5.64447 0 0 0 
81 1 10.7613 -6.25028 -5.85141 0 0 0 
80 1 11.6156 -6.01098 -6.33157 0 0 0 
1414 2 17.8615 -5.68135 -5.73974 0 0 0 
313 1 -0.651432 -4.79749 -6.20658 0 0 0 
312 1 0.0845726 -5.21305 -5.71212 0 0 0 
1145 2 1.53874 -5.13297 -5.88983 0 0 0 
1420 2 2.55054 -5.48576 -5.90265 0 0 0 
1399 2 4.18568 -4.55302 -6.01425 0 0 0 
870 1 5.27268 -4.52353 -6.37964 0 0 0 
143 1 4.85536 -5.45574 -6.42491 0 0 0 
1052 2 5.7971 -5.29271 -5.89686 0 0 0 
379 1 7.1028 -5.54849 -5.81816 0 0 0 
380 1 6.70008 -4.65669 -5.8311 0 0 0 
1321 2 13.3254 -4.65665 -6.31295 0 0 0 
320 1 -4.09645 -4.12908 -5.96163 0 0 0 
1435 2 -3.04943 -3.76263 -5.99861 0 0 0 
130 1 -1.7177 -3.83723 -5.7065 0 0 0 
1519 2 -0.692652 -3.74745 -6.1157 0 0 0 
1451 2 0.377921 -3.98217 -5.97256 0 0 0 
796 1 1.28967 -4.39213 -6.57363 0 0 0 
1447 2 1.51511 -3.82676 -5.68823 0 0 0 
1382 2 2.87092 -4.35475 -5.86784 0 0 0 
1492 2 3.51702 -3.92476 -6.64231 0 0 0 
1187 2 3.81489 -3.64565 -5.62521 0 0 0 
535 1 4.93078 -3.5102 -6.04589 0 0 0 
1365 2 6.13787 -3.7816 -6.22972 0 0 0 
1324 2 7.88325 -3.52793 -5.89075 0 0 0 
1215 2 8.92885 -3.50705 -5.68544 0 0 0 
1387 2 10.3437 -3.35808 -6.51488 0 0 0 
1494 2 -4.6395 -3.16307 -6.04251 0 0 0 
131 1 -1.70156 -2.98169 -6.17313 0 0 0 
1012 2 0.0539353 -2.81859 -5.93538 0 0 0 
1508 2 1.78749 -2.44661 -5.83194 0 0 0 
554 1 2.93794 -3.17501 -6.22728 0 0 0 
892 1 7.1869 -2.75841 -5.94011 0 0 0 
1357 2 0.772533 -1.92406 -5.92372 0 0 0 
1323 2 3.09017 -1.87771 -6.157 0 0 0 
893 1 7.26505 -1.85632 -6.10348 0 0 0 
802 1 -1.69636 -0.146534 -6.10723 0 0 0 
801 1 -1.15174 -0.864164 -6.49343 0 0 0 
1179 2 5.37491 -0.967419 -5.8778 0 0 0 
894 1 7.41833 -0.872439 -6.01897 0 0 0 
803 1 -2.30915 0.439714 -5.64116 0 0 0 
562 1 3.54669 0.467724 -6.00857 0 0 0 
1480 2 5.24304 0.0902124 -6.03751 0 0 0 
630 1 6.94696 1.08564 -6.18148 0 0 0 
563 1 4.06368 1.28289 -6.04785 0 0 0 
631 1 6.08104 1.51351 -6.19316 0 0 0 
1422 2 3.05981 2.27724 -6.33253 0 0 0 
566 1 6.18296 2.61029 -6.07361 0 0 0 
567 1 6.99636 2.9522 -6.46584 0 0 0 
1411 2 -13.6947 5.35714 -6.10811 0 0 0 
686 1 -11.0609 4.49037 -6.32716 0 0 0 
688 1 -10.028 5.5239 -6.42302 0 0 0 
711 1 -4.90002 5.44087 -6.38754 0 0 0 
712 1 -3.9648 5.3244 -6.50548 0 0 0 
714 1 -2.17241 5.54389 -6.05428 0 0 0 
715 1 -1.26299 5.08118 -6.0077 0 0 0 
724 1 5.61416 5.53909 -6.10445 0 0 0 
689 1 -9.62947 6.115 -5.7119 0 0 0 
710 1 -5.75858 5.91011 -6.39498 0 0 0 
713 1 -3.1515 5.65637 -6.09075 0 0 0 
716 1 -0.545657 5.68726 -5.71944 0 0 0 
717 1 0.258079 6.14539 -5.87775 0 0 0 
1271 2 3.739 5.7446 -6.23248 0 0 0 
725 1 6.4823 5.73652 -5.74025 0 0 0 
1141 2 -6.44691 7.35733 -5.6595 0 0 0 
1532 2 -1.37143 6.85911 -6.06416 0 0 0 
183 1 -9.234 8.87276 -5.97504 0 0 0 
182 1 -8.61298 8.37877 -6.50003 0 0 0 
705 1 -7.36661 8.27615 -5.55694 0 0 0 
505 1 5.73646 -14.2639 -5.11945 0 0 0 
1305 2 14.3052 -13.8154 -5.45287 0 0 0 
947 1 -5.19513 -11.6002 -4.81704 0 0 0 
509 1 6.50299 -11.2401 -5.50182 0 0 0 
247 1 8.68997 -11.6593 -5.39975 0 0 0 
510 1 5.82354 -10.9715 -4.8766 0 0 0 
246 1 8.56874 -10.904 -4.8318 0 0 0 
951 1 -3.42046 -9.81142 -4.97187 0 0 0 
1136 2 1.92748 -9.81038 -5.00438 0 0 0 
120 1 1.54859 -8.89753 -4.77017 0 0 0 
1457 2 1.59397 -7.92958 -5.25035 0 0 0 
514 1 3.19792 -8.8754 -4.54438 0 0 0 
515 1 2.62481 -8.17656 -4.47614 0 0 0 
1329 2 4.18381 -8.01985 -4.8963 0 0 0 
88 1 5.08669 -8.61643 -5.13797 0 0 0 
87 1 5.96037 -8.3208 -5.16494 0 0 0 
1166 2 -11.192 -7.45938 -4.93156 0 0 0 
789 1 -2.13076 -6.74041 -5.07029 0 0 0 
1020 2 -0.66238 -7.74143 -5.29589 0 0 0 
852 1 0.634234 -7.60228 -5.48183 0 0 0 
853 1 0.50359 -7.4081 -4.54248 0 0 0 