ITEM: TIMESTEP
10000000
ITEM: NUMBER OF ATOMS
2000
ITEM: BOX BOUNDS pp pp pp
-3.0000000000000000e+01 3.0000000000000000e+01
-3.0000000000000000e+01 3.0000000000000000e+01
-3.0000000000000000e+01 3.0000000000000000e+01
ITEM: ATOMS id type x y z ix iy iz 
102 1 4.74097 -12.133 -18.2266 0 0 0 
101 1 5.6856 -12.1115 -18.0475 0 0 0 
1006 2 5.47627 -7.93311 -18.1078 0 0 0 
412 1 9.54583 -5.68484 -18.0091 0 0 0 
414 1 7.54962 -5.15505 -17.8859 0 0 0 
413 1 8.52117 -5.3661 -17.9899 0 0 0 
411 1 10.1403 -4.93942 -17.7799 0 0 0 
103 1 4.1222 -12.0322 -17.5221 0 0 0 
100 1 6.34847 -12.0846 -17.3753 0 0 0 
507 1 4.64938 -10.1306 -17.0962 0 0 0 
506 1 5.58729 -10.1482 -16.986 0 0 0 
505 1 6.57878 -10.2148 -17.2227 0 0 0 
504 1 7.24943 -10.7924 -16.9089 0 0 0 
1438 2 7.83623 -10.8689 -17.7744 0 0 0 
508 1 4.17162 -9.2518 -16.8723 0 0 0 
1882 2 5.87983 -9.03355 -17.2089 0 0 0 
510 1 5.64356 -8.06313 -16.6832 0 0 0 
74 1 6.70754 -6.90067 -16.9399 0 0 0 
1592 2 9.72719 -6.70814 -17.5401 0 0 0 
1065 2 -4.8891 -6.56398 -17.1447 0 0 0 
1600 2 6.41426 -5.67591 -16.9265 0 0 0 
73 1 7.62275 -6.66611 -17.0917 0 0 0 
72 1 8.54126 -6.26008 -17.2551 0 0 0 
71 1 9.32751 -5.89858 -16.8107 0 0 0 
415 1 6.60839 -4.81385 -17.6981 0 0 0 
416 1 5.60901 -4.91704 -17.6901 0 0 0 
410 1 10.9076 -5.01933 -17.1485 0 0 0 
409 1 11.7741 -5.17235 -16.7689 0 0 0 
417 1 4.99917 -4.31263 -17.2795 0 0 0 
1590 2 6.00253 -3.5238 -17.4035 0 0 0 
65 1 12.126 -2.16066 -16.8007 0 0 0 
64 1 12.9345 -1.99478 -17.2593 0 0 0 
63 1 13.6045 -1.3056 -16.8368 0 0 0 
1109 2 -8.65896 8.89387 -17.0258 0 0 0 
1870 2 12.2644 17.0107 -17.3926 0 0 0 
105 1 3.42611 -12.8788 -16.0202 0 0 0 
104 1 3.64803 -12.2442 -16.6527 0 0 0 
1482 2 5.22612 -12.3668 -15.6503 0 0 0 
98 1 6.8179 -12.3146 -15.6763 0 0 0 
501 1 7.90238 -12.6607 -15.9079 0 0 0 
1583 2 9.6444 -12.4846 -16.5937 0 0 0 
99 1 6.81403 -11.8027 -16.5743 0 0 0 
502 1 8.22108 -11.9168 -16.503 0 0 0 
601 1 16.4647 -11.9627 -15.8476 0 0 0 
503 1 8.04232 -10.9737 -16.2884 0 0 0 
1970 2 9.5729 -10.7029 -15.7119 0 0 0 
602 1 16.5911 -11.0364 -15.8867 0 0 0 
1297 2 4.79778 -9.85957 -15.9889 0 0 0 
1275 2 5.76852 -9.28473 -16.0232 0 0 0 
1788 2 6.68134 -8.99818 -16.5497 0 0 0 
1200 2 6.85604 -9.60689 -15.6533 0 0 0 
1320 2 9.21281 -9.55317 -16.1582 0 0 0 
516 1 10.1199 -9.04138 -16.171 0 0 0 
1905 2 15.8905 -9.71277 -15.9965 0 0 0 
509 1 4.98913 -8.75275 -16.6591 0 0 0 
511 1 6.28699 -8.04508 -15.9832 0 0 0 
512 1 7.02541 -8.59281 -15.6145 0 0 0 
513 1 7.91853 -8.65432 -16.019 0 0 0 
514 1 8.74363 -8.21883 -16.0072 0 0 0 
515 1 9.49389 -8.41785 -16.577 0 0 0 
1967 2 4.65534 -7.72582 -16.3495 0 0 0 
1405 2 5.37713 -7.52461 -15.6412 0 0 0 
1879 2 6.66856 -7.17856 -15.7776 0 0 0 
1077 2 7.29176 -7.70478 -16.6094 0 0 0 
76 1 5.11183 -6.5009 -16.0032 0 0 0 
75 1 5.98676 -6.56586 -16.4133 0 0 0 
648 1 6.96662 -6.0814 -15.7889 0 0 0 
1829 2 8.08576 -6.49675 -16.1294 0 0 0 
70 1 9.8713 -5.71736 -16.0522 0 0 0 
1841 2 9.29298 -6.64227 -15.8338 0 0 0 
424 1 3.51924 -5.20882 -16.2103 0 0 0 
425 1 4.24556 -5.41011 -15.6032 0 0 0 
1193 2 5.92239 -5.5503 -15.8503 0 0 0 
646 1 6.2296 -4.5842 -16.6378 0 0 0 
647 1 6.94088 -5.20118 -16.1477 0 0 0 
69 1 10.0942 -4.77874 -16.2342 0 0 0 
408 1 12.1519 -4.87104 -15.8129 0 0 0 
1110 2 -17.5651 -3.97828 -16.3966 0 0 0 
423 1 3.21462 -4.30383 -15.9869 0 0 0 
422 1 2.63769 -3.61252 -16.3125 0 0 0 
1466 2 4.39645 -4.31134 -15.9691 0 0 0 
418 1 4.90569 -3.64797 -16.6521 0 0 0 
645 1 5.85284 -3.81222 -16.2351 0 0 0 
1722 2 7.22542 -4.1393 -16.6657 0 0 0 
1932 2 6.8618 -4.12377 -15.6028 0 0 0 
68 1 10.2749 -3.93134 -15.9277 0 0 0 
236 1 16.0772 -3.6535 -16.1406 0 0 0 
421 1 3.06917 -2.82137 -15.9653 0 0 0 
420 1 3.96567 -2.7599 -15.7762 0 0 0 
419 1 4.73927 -3.33322 -15.7653 0 0 0 
644 1 5.80834 -2.84444 -16.141 0 0 0 
67 1 10.7499 -3.10952 -15.8851 0 0 0 
66 1 11.526 -2.52346 -16.0393 0 0 0 
235 1 15.2108 -3.20269 -16.3035 0 0 0 
1137 2 10.2697 -2.02747 -15.7371 0 0 0 
62 1 14.1805 -0.751332 -16.2587 0 0 0 
1546 2 13.3756 -0.456925 -15.5613 0 0 0 
1544 2 -15.8662 10.3831 -16.5211 0 0 0 
106 1 2.93862 -13.5199 -15.4695 0 0 0 
107 1 2.62336 -13.8955 -14.6375 0 0 0 
496 1 5.41902 -13.6215 -14.9446 0 0 0 
495 1 5.16253 -12.7894 -14.6616 0 0 0 
500 1 8.0953 -12.6732 -14.9649 0 0 0 
600 1 16.3229 -12.4866 -14.9746 0 0 0 
848 1 4.24628 -11.7221 -15.1451 0 0 0 
1512 2 6.06434 -11.2579 -15.0083 0 0 0 
1505 2 7.11582 -11.1485 -14.9925 0 0 0 
97 1 7.18148 -12.1237 -14.7858 0 0 0 
1871 2 8.14253 -11.5252 -15.425 0 0 0 
488 1 8.93606 -11.1792 -14.7443 0 0 0 
849 1 4.80788 -10.8951 -15.1074 0 0 0 
1529 2 5.92604 -10.2576 -15.4744 0 0 0 
491 1 6.71493 -10.2058 -14.5581 0 0 0 
490 1 7.60453 -10.1605 -14.967 0 0 0 
489 1 8.40525 -10.5361 -15.2655 0 0 0 
518 1 10.2279 -10.3412 -14.8151 0 0 0 
603 1 16.729 -10.148 -15.4693 0 0 0 
1666 2 -14.7238 -9.40839 -15.4579 0 0 0 
850 1 4.84383 -9.8845 -14.9446 0 0 0 
851 1 5.0117 -8.97807 -15.2126 0 0 0 
1858 2 5.98533 -9.24151 -14.687 0 0 0 
1629 2 7.9249 -9.1316 -14.9866 0 0 0 
1484 2 9.41405 -8.91042 -15.3715 0 0 0 
517 1 10.0573 -9.74001 -15.5068 0 0 0 
795 1 10.0281 -9.25058 -14.4908 0 0 0 
447 1 12.1587 -9.4492 -14.5265 0 0 0 
604 1 16.8537 -9.21754 -15.4999 0 0 0 
852 1 5.39995 -8.18582 -14.8357 0 0 0 
1416 2 7.63972 -7.78028 -15.321 0 0 0 
796 1 10.3879 -8.52968 -15.0173 0 0 0 
448 1 11.7907 -8.41619 -14.6178 0 0 0 
605 1 16.6909 -8.42358 -14.9398 0 0 0 
650 1 8.106 -6.89616 -14.6513 0 0 0 
1918 2 9.37689 -7.77163 -15.0838 0 0 0 
1312 2 9.18295 -6.77481 -14.6248 0 0 0 
798 1 10.3726 -6.97147 -15.1975 0 0 0 
797 1 10.8253 -7.69228 -14.831 0 0 0 
1724 2 12.2998 -7.329 -14.6274 0 0 0 
78 1 3.65972 -6.18671 -14.7912 0 0 0 
77 1 4.38029 -6.47015 -15.3081 0 0 0 
1732 2 5.9531 -6.47356 -15.2463 0 0 0 
649 1 7.29436 -6.55821 -15.0043 0 0 0 
1959 2 8.60947 -5.86102 -15.0028 0 0 0 
799 1 9.97817 -6.11444 -15.0261 0 0 0 
1169 2 12.101 -5.85687 -15.1761 0 0 0 
1986 2 11.4254 -6.6519 -14.7134 0 0 0 
79 1 3.23606 -5.42101 -14.4802 0 0 0 
426 1 5.13276 -5.54519 -15.0601 0 0 0 
1429 2 6.43971 -5.5135 -14.9136 0 0 0 
1493 2 5.75171 -4.52402 -15.2562 0 0 0 
1531 2 7.47658 -5.40966 -14.9229 0 0 0 
1113 2 10.2581 -4.78606 -14.7165 0 0 0 
1773 2 11.2691 -4.97382 -15.1548 0 0 0 
1912 2 3.54254 -4.29769 -14.8301 0 0 0 
1917 2 4.59221 -4.43456 -14.9093 0 0 0 
338 1 5.36414 -3.75994 -14.7215 0 0 0 
429 1 7.33672 -4.40352 -14.6277 0 0 0 
407 1 12.1394 -4.33287 -14.9994 0 0 0 
406 1 11.826 -3.50138 -14.5712 0 0 0 
1828 2 15.3496 -3.49636 -14.8231 0 0 0 
1769 2 5.32326 -2.62405 -14.4744 0 0 0 
643 1 5.56621 -2.26291 -15.4361 0 0 0 
337 1 5.9876 -3.22459 -15.1646 0 0 0 
336 1 6.94305 -3.08747 -15.3092 0 0 0 
1402 2 6.86478 -2.2538 -14.5074 0 0 0 
335 1 7.86472 -3.16555 -15.0706 0 0 0 
334 1 8.66322 -3.21782 -14.5712 0 0 0 
1332 2 11.5176 -2.3444 -14.4642 0 0 0 
1550 2 12.3213 -2.82361 -15.2964 0 0 0 
296 1 13.7706 -3.24322 -14.4627 0 0 0 
297 1 13.4536 -2.49515 -14.9402 0 0 0 
234 1 14.8875 -2.80124 -15.4379 0 0 0 
233 1 14.6911 -2.32545 -14.6632 0 0 0 
237 1 16.3949 -3.29135 -15.2438 0 0 0 
642 1 5.26628 -1.60215 -14.7108 0 0 0 
298 1 12.8312 -1.74686 -14.9656 0 0 0 
1909 2 15.592 -2.07378 -15.1187 0 0 0 
1949 2 6.05183 -0.971302 -14.6073 0 0 0 
299 1 12.2005 -0.981921 -14.8985 0 0 0 
300 1 12.3129 -0.232239 -15.514 0 0 0 
61 1 14.3466 -0.625829 -15.3332 0 0 0 
865 1 7.05515 0.0757122 -14.5384 0 0 0 
306 1 10.9732 0.617571 -14.9528 0 0 0 
301 1 12.4548 0.603873 -15.0852 0 0 0 
305 1 10.8056 1.51148 -15.2572 0 0 0 
303 1 11.5925 2.18801 -15.466 0 0 0 
302 1 12.2581 1.55327 -15.2642 0 0 0 
304 1 10.6672 2.50081 -15.5536 0 0 0 
1766 2 -17.5265 12.1262 -14.7414 0 0 0 
108 1 2.25433 -13.9625 -13.7838 0 0 0 
497 1 6.08648 -13.9916 -14.3383 0 0 0 
498 1 7.05543 -13.8759 -14.2139 0 0 0 
499 1 7.8994 -13.3422 -14.2659 0 0 0 
1266 2 5.0353 -12.8369 -13.6219 0 0 0 
1827 2 6.10152 -13.0255 -14.0237 0 0 0 
1681 2 7.012 -12.7746 -13.6833 0 0 0 
598 1 15.1015 -12.749 -13.534 0 0 0 
599 1 15.8499 -12.8865 -14.1073 0 0 0 
847 1 4.42131 -11.9356 -14.2264 0 0 0 
846 1 3.83636 -11.9459 -13.4557 0 0 0 
1552 2 3.5741 -11.2209 -14.2582 0 0 0 
494 1 5.47101 -11.9978 -14.1058 0 0 0 
96 1 7.75516 -12.0646 -14.0203 0 0 0 
95 1 8.31767 -11.5325 -13.3377 0 0 0 
486 1 9.90137 -11.5318 -13.3503 0 0 0 
520 1 10.9768 -11.7181 -13.5642 0 0 0 
844 1 2.9819 -10.5644 -13.3394 0 0 0 
493 1 5.37991 -11.0958 -13.9476 0 0 0 
722 1 5.26128 -10.1338 -13.4716 0 0 0 
492 1 5.77249 -10.3195 -14.4087 0 0 0 
1533 2 6.49651 -11.0277 -14.0309 0 0 0 
1707 2 7.79259 -10.9299 -14.1802 0 0 0 
1968 2 8.64712 -10.3093 -13.7657 0 0 0 
487 1 9.48084 -10.9031 -13.9652 0 0 0 
519 1 10.4588 -11.0934 -14.1473 0 0 0 
1971 2 10.2779 -10.1631 -13.7608 0 0 0 
446 1 12.3081 -10.3413 -14.3605 0 0 0 
445 1 12.3343 -10.6704 -13.4942 0 0 0 
1333 2 -3.37608 -9.65376 -13.4393 0 0 0 
723 1 5.45925 -9.20338 -13.6922 0 0 0 
1738 2 6.54256 -9.44571 -13.6641 0 0 0 
1808 2 7.577 -9.76029 -13.7829 0 0 0 
793 1 8.6672 -9.16273 -13.5189 0 0 0 
794 1 9.11452 -9.24105 -14.3675 0 0 0 
1588 2 11.6194 -9.75972 -13.5174 0 0 0 
1005 2 14.6212 -9.75305 -13.3561 0 0 0 
725 1 4.08891 -7.96574 -13.6661 0 0 0 
724 1 4.99491 -8.36393 -13.7387 0 0 0 
1815 2 6.10955 -8.37075 -13.5629 0 0 0 
1933 2 6.87744 -8.59382 -14.3731 0 0 0 
1758 2 9.2985 -8.09848 -13.9612 0 0 0 
1206 2 11.0369 -8.83192 -13.7854 0 0 0 
449 1 11.7417 -7.9749 -13.7673 0 0 0 
1913 2 13.4857 -7.9862 -13.7132 0 0 0 
606 1 16.553 -7.8017 -14.2567 0 0 0 
726 1 3.64963 -7.09917 -13.5209 0 0 0 
1215 2 5.27636 -7.16574 -13.3337 0 0 0 
1445 2 4.53198 -6.85794 -14.2872 0 0 0 
853 1 5.80773 -7.50085 -14.2954 0 0 0 
854 1 6.37446 -7.23195 -13.5477 0 0 0 
1628 2 7.07598 -7.35229 -14.3671 0 0 0 
1936 2 7.4268 -7.01008 -13.4699 0 0 0 
651 1 8.43179 -7.38005 -13.8957 0 0 0 
1308 2 10.2499 -6.99546 -14.1149 0 0 0 
1382 2 11.8331 -6.80295 -13.7649 0 0 0 
1415 2 14.2221 -7.17774 -13.5815 0 0 0 
607 1 16.9177 -7.28741 -13.5561 0 0 0 
1803 2 3.32755 -5.86482 -13.3606 0 0 0 
1057 2 5.47592 -6.3139 -14.0905 0 0 0 
1943 2 4.71922 -6.12083 -13.3965 0 0 0 
1768 2 6.54809 -6.35448 -14.2218 0 0 0 
1135 2 8.49397 -6.32803 -13.9006 0 0 0 
1395 2 9.63186 -6.26336 -13.7064 0 0 0 
800 1 10.6385 -5.68768 -14.4096 0 0 0 
801 1 11.5703 -5.67703 -14.2769 0 0 0 
802 1 12.4713 -5.59719 -13.9065 0 0 0 
1560 2 13.6691 -6.39679 -14.3046 0 0 0 
664 1 15.1425 -6.63435 -13.701 0 0 0 
665 1 14.8849 -5.77338 -14.1859 0 0 0 
666 1 15.7574 -5.58445 -14.4263 0 0 0 
80 1 3.24275 -4.82921 -13.7052 0 0 0 
1375 2 4.4331 -5.4984 -14.3263 0 0 0 
1184 2 4.27983 -4.98886 -13.4083 0 0 0 
427 1 5.66515 -5.12334 -14.4003 0 0 0 
428 1 6.46441 -4.49297 -14.3435 0 0 0 
430 1 8.17914 -4.83932 -14.3189 0 0 0 
1824 2 9.39149 -5.31454 -14.3215 0 0 0 
431 1 8.95437 -4.47247 -13.8566 0 0 0 
1585 2 10.5849 -5.13729 -13.5003 0 0 0 
803 1 13.2026 -5.19101 -13.3926 0 0 0 
294 1 14.8371 -4.74897 -13.8779 0 0 0 
667 1 16.5932 -5.18143 -14.1189 0 0 0 
1062 2 2.98692 -3.85335 -13.8494 0 0 0 
1276 2 5.09422 -4.37007 -13.815 0 0 0 
339 1 4.52991 -3.52899 -14.2156 0 0 0 
1437 2 7.72868 -3.87314 -13.7799 0 0 0 
432 1 9.82743 -4.1623 -13.6749 0 0 0 
433 1 10.8755 -4.18043 -13.5146 0 0 0 
1009 2 12.3742 -4.34492 -13.8884 0 0 0 
1404 2 13.3616 -4.29879 -13.8891 0 0 0 
295 1 14.5487 -3.85584 -14.1507 0 0 0 
1914 2 15.7511 -4.31312 -14.3179 0 0 0 
669 1 16.2334 -3.54619 -13.4397 0 0 0 
668 1 16.7923 -4.35069 -13.5609 0 0 0 
340 1 4.0532 -2.896 -13.6179 0 0 0 
1418 2 4.97432 -2.66168 -13.3374 0 0 0 
1500 2 6.12747 -3.25202 -13.8017 0 0 0 
21 1 7.23903 -2.93207 -13.6952 0 0 0 
20 1 7.84367 -2.22268 -13.9246 0 0 0 
333 1 9.45804 -2.84293 -14.1282 0 0 0 
1432 2 10.4878 -3.17017 -14.0974 0 0 0 
1342 2 10.8526 -2.31763 -13.5175 0 0 0 
405 1 11.6696 -3.0373 -13.7136 0 0 0 
1792 2 12.6094 -2.57725 -14.2861 0 0 0 
232 1 14.4152 -2.41904 -13.659 0 0 0 
1658 2 15.4003 -2.8669 -14.0067 0 0 0 
238 1 16.4376 -2.90254 -14.3459 0 0 0 
239 1 16.3677 -2.3478 -13.597 0 0 0 
641 1 5.30338 -1.29275 -13.7681 0 0 0 
863 1 6.99844 -1.47029 -13.4907 0 0 0 
19 1 8.17075 -1.45374 -13.4125 0 0 0 
332 1 10.1439 -2.19682 -14.3969 0 0 0 
331 1 10.875 -1.51577 -14.2325 0 0 0 
1670 2 12.0934 -1.81774 -13.3857 0 0 0 
1306 2 13.2406 -1.8347 -13.7899 0 0 0 
240 1 16.5095 -1.3747 -13.5143 0 0 0 
864 1 7.06728 -0.824438 -14.2239 0 0 0 
18 1 7.93969 -0.542695 -13.3688 0 0 0 
308 1 10.0049 -0.442564 -13.5291 0 0 0 
330 1 11.2619 -0.93673 -13.5766 0 0 0 
60 1 14.1884 -0.884796 -14.376 0 0 0 
59 1 14.3554 -0.848684 -13.4542 0 0 0 
866 1 7.76714 0.682262 -14.2909 0 0 0 
307 1 10.5129 0.0219335 -14.2582 0 0 0 
867 1 8.02678 1.15571 -13.399 0 0 0 
1186 2 -8.8387 11.5128 -13.3619 0 0 0 
110 1 3.66681 -13.5214 -12.6822 0 0 0 
1339 2 6.65775 -14.1175 -13.2798 0 0 0 
577 1 10.4979 -14.0253 -12.277 0 0 0 
109 1 2.67921 -13.2692 -13.2123 0 0 0 
1198 2 2.91526 -12.5086 -12.2414 0 0 0 
465 1 5.86747 -12.7283 -12.3419 0 0 0 
464 1 6.73868 -13.0252 -12.6136 0 0 0 
1468 2 8.11533 -12.9373 -13.0319 0 0 0 
521 1 10.9768 -12.455 -12.857 0 0 0 
597 1 14.643 -12.9514 -12.7483 0 0 0 
845 1 3.00808 -11.4932 -13.1319 0 0 0 
466 1 5.36217 -11.9315 -12.5438 0 0 0 
1644 2 6.23376 -12.1579 -13.3187 0 0 0 
1894 2 6.10931 -11.21 -13.0386 0 0 0 
1172 2 7.24184 -11.7538 -13.1489 0 0 0 
1509 2 9.16372 -11.1181 -12.6903 0 0 0 
485 1 10.4436 -11.4477 -12.5258 0 0 0 
1633 2 11.7831 -11.6261 -12.8064 0 0 0 
1568 2 3.78245 -10.7015 -12.8182 0 0 0 
721 1 4.68837 -10.1059 -12.6468 0 0 0 
92 1 6.28176 -10.28 -12.3436 0 0 0 
93 1 6.94048 -10.4121 -13.0849 0 0 0 
94 1 7.87669 -10.8324 -12.9579 0 0 0 
1654 2 8.5518 -10.1354 -12.3541 0 0 0 
1950 2 9.99197 -10.4611 -12.6686 0 0 0 
1047 2 11.2139 -10.6856 -13.0197 0 0 0 
444 1 12.5416 -10.8044 -12.5362 0 0 0 
843 1 3.22892 -9.82163 -12.8934 0 0 0 
842 1 2.8192 -9.01695 -12.5072 0 0 0 
1176 2 5.56732 -9.37979 -12.6036 0 0 0 
1655 2 6.70771 -9.16466 -12.4578 0 0 0 
1662 2 7.66714 -8.95151 -12.8996 0 0 0 
792 1 8.78184 -9.01122 -12.5067 0 0 0 
1683 2 9.64315 -9.51001 -13.1334 0 0 0 
1118 2 10.7339 -9.5006 -12.8993 0 0 0 
1181 2 11.7708 -8.95145 -12.8806 0 0 0 
1022 2 11.7954 -9.85613 -12.4017 0 0 0 
441 1 13.8355 -9.75866 -12.5228 0 0 0 
661 1 14.9938 -9.21699 -12.437 0 0 0 
1869 2 5.01379 -8.14714 -12.616 0 0 0 
1476 2 7.08316 -8.07041 -13.2019 0 0 0 
652 1 8.63045 -7.86166 -13.1154 0 0 0 
1446 2 9.85057 -8.71652 -12.4104 0 0 0 
653 1 8.91812 -7.90452 -12.2482 0 0 0 
1120 2 10.9758 -8.15654 -12.7683 0 0 0 
1383 2 12.9801 -8.88203 -12.2763 0 0 0 
440 1 14.0316 -8.8419 -12.7987 0 0 0 
439 1 13.9528 -7.8966 -12.6663 0 0 0 
662 1 15.1464 -8.37355 -12.8067 0 0 0 
727 1 3.30147 -6.8029 -12.6844 0 0 0 
1984 2 2.34114 -7.42828 -12.5154 0 0 0 
855 1 6.09976 -7.63979 -12.697 0 0 0 
1942 2 6.91273 -6.79986 -12.4084 0 0 0 
1393 2 7.79884 -7.5642 -12.4559 0 0 0 
1387 2 8.9952 -6.87431 -13.1113 0 0 0 
1619 2 10.0409 -7.53619 -13.0979 0 0 0 
1577 2 11.1101 -7.21539 -12.2251 0 0 0 
450 1 11.904 -7.53554 -12.9111 0 0 0 
451 1 12.6268 -7.75164 -12.3571 0 0 0 
1498 2 12.8798 -7.13607 -13.2095 0 0 0 
438 1 14.0713 -6.99162 -12.3407 0 0 0 
663 1 15.2616 -7.54114 -13.2968 0 0 0 
1752 2 4.37657 -6.62418 -12.4687 0 0 0 
1527 2 3.85192 -5.6924 -12.3146 0 0 0 
1016 2 6.15052 -6.25242 -13.1584 0 0 0 
1327 2 7.87974 -6.48633 -12.7562 0 0 0 
813 1 9.19383 -5.83905 -12.7743 0 0 0 
812 1 9.92806 -6.43372 -12.769 0 0 0 
1412 2 10.8133 -6.54865 -13.274 0 0 0 
1126 2 11.5451 -5.56913 -13.3161 0 0 0 
1903 2 12.6162 -5.99885 -12.921 0 0 0 
437 1 13.622 -6.15494 -12.2657 0 0 0 
1830 2 14.6966 -5.8127 -12.8936 0 0 0 
608 1 16.4147 -6.62898 -13.0725 0 0 0 
609 1 15.5752 -6.5869 -12.6145 0 0 0 
1365 2 15.8839 -5.75735 -13.2453 0 0 0 
81 1 2.99482 -4.57654 -12.8523 0 0 0 
858 1 4.92482 -5.19669 -12.4294 0 0 0 
1648 2 5.60233 -5.22309 -13.2826 0 0 0 
815 1 7.48315 -5.46955 -12.8839 0 0 0 
816 1 6.68736 -5.27901 -12.3744 0 0 0 
814 1 8.41028 -5.35852 -13.0147 0 0 0 
1822 2 9.22087 -4.89092 -12.4441 0 0 0 
1669 2 10.2652 -4.58353 -12.6583 0 0 0 
435 1 12.2533 -5.03246 -12.5045 0 0 0 
804 1 13.694 -4.65722 -12.7444 0 0 0 
293 1 15.1294 -4.59454 -12.9945 0 0 0 
292 1 15.6036 -5.17612 -12.448 0 0 0 
1819 2 3.88361 -4.0007 -12.9065 0 0 0 
859 1 4.86627 -4.28428 -12.672 0 0 0 
860 1 5.24323 -3.42588 -12.564 0 0 0 
1143 2 6.04755 -4.30032 -12.7641 0 0 0 
22 1 7.36086 -3.46309 -12.8512 0 0 0 
1115 2 8.40044 -4.05638 -12.9174 0 0 0 
1265 2 9.19342 -3.41674 -13.1372 0 0 0 
434 1 11.6146 -4.44107 -12.9897 0 0 0 
1667 2 12.4411 -3.60544 -12.3466 0 0 0 
1780 2 14.305 -3.70368 -13.0198 0 0 0 
1102 2 3.11125 -3.08941 -13.1957 0 0 0 
1075 2 3.24107 -2.30506 -12.4531 0 0 0 
341 1 4.1563 -2.73932 -12.6638 0 0 0 
861 1 5.90147 -2.7209 -12.7748 0 0 0 
1728 2 7.30185 -2.4295 -12.6799 0 0 0 
1963 2 8.26461 -3.05702 -13.2957 0 0 0 
1847 2 9.44486 -2.73957 -12.2244 0 0 0 
1001 2 10.6397 -3.26365 -12.97 0 0 0 
404 1 11.5354 -2.66794 -12.7986 0 0 0 
1647 2 13.162 -3.29709 -13.3313 0 0 0 
231 1 14.1942 -2.5368 -12.7152 0 0 0 
1180 2 15.2772 -2.68085 -12.8145 0 0 0 
670 1 16.3307 -2.92418 -12.6759 0 0 0 
1621 2 5.11118 -1.73679 -12.6077 0 0 0 
862 1 6.48916 -2.21684 -13.2852 0 0 0 
1029 2 6.15351 -1.5105 -12.4096 0 0 0 
1349 2 7.16846 -1.25263 -12.2897 0 0 0 
1536 2 8.93466 -2.05617 -12.9995 0 0 0 
309 1 10.1405 -1.27248 -13.0902 0 0 0 
310 1 10.135 -2.18753 -12.6821 0 0 0 
1068 2 11.2261 -1.37362 -12.5654 0 0 0 
403 1 12.0881 -2.00423 -12.3126 0 0 0 
1315 2 12.976 -1.46408 -12.7961 0 0 0 
241 1 16.6015 -1.35373 -12.5815 0 0 0 
639 1 4.25536 -1.09405 -12.4064 0 0 0 
640 1 5.02521 -0.814917 -13.0135 0 0 0 
1875 2 5.99524 -0.242493 -12.2992 0 0 0 
17 1 7.51781 -0.0195324 -12.6408 0 0 0 
1756 2 6.7096 -0.495991 -13.1584 0 0 0 
1664 2 9.12868 -0.956472 -13.1251 0 0 0 
1652 2 9.65685 -0.475697 -12.2925 0 0 0 
329 1 11.8719 -0.642178 -12.8865 0 0 0 
1425 2 13.6346 -0.631726 -12.5441 0 0 0 
58 1 14.8191 -0.3148 -12.7998 0 0 0 
1136 2 6.70208 0.517971 -13.3061 0 0 0 
16 1 7.19548 0.932445 -12.4103 0 0 0 
868 1 8.54917 1.10644 -12.562 0 0 0 
1923 2 8.55644 0.135089 -12.8697 0 0 0 
869 1 9.51296 0.887421 -12.7436 0 0 0 
870 1 10.3264 0.494132 -12.9682 0 0 0 
1381 2 11.7505 0.238297 -12.3675 0 0 0 
871 1 11.1395 1.04366 -13.2109 0 0 0 
1701 2 10.3629 1.75034 -12.8575 0 0 0 
872 1 12.0204 1.29624 -12.8802 0 0 0 
873 1 11.9308 1.98271 -12.2429 0 0 0 
251 1 13.6818 2.17211 -12.8094 0 0 0 
250 1 14.6337 2.00496 -12.4414 0 0 0 
1973 2 9.6178 3.27305 -12.2732 0 0 0 
252 1 12.927 2.67429 -13.0978 0 0 0 
1557 2 15.585 2.74191 -12.2387 0 0 0 
253 1 13.402 3.35611 -12.6264 0 0 0 
1977 2 5.15838 12.9123 -12.5086 0 0 0 
1989 2 9.51066 -15.049 -12.0816 0 0 0 
1876 2 3.39404 -13.4552 -11.6476 0 0 0 
1125 2 7.06203 -14.2799 -12.0621 0 0 0 
574 1 8.15963 -14.0739 -11.3964 0 0 0 
575 1 8.76557 -14.0523 -12.1921 0 0 0 
576 1 9.5873 -13.8925 -11.8344 0 0 0 
578 1 11.3972 -13.4928 -12.1844 0 0 0 
471 1 1.98999 -12.4863 -11.4314 0 0 0 
111 1 4.2492 -12.9726 -12.1092 0 0 0 
1852 2 3.48418 -12.397 -11.3537 0 0 0 
112 1 4.83958 -12.6233 -11.4112 0 0 0 
113 1 5.76163 -12.4263 -11.1517 0 0 0 
463 1 7.39023 -12.6505 -11.9633 0 0 0 
462 1 8.22906 -12.5728 -11.4531 0 0 0 
1222 2 10.1244 -12.6889 -11.9864 0 0 0 
579 1 12.2763 -13.0232 -12.1731 0 0 0 
580 1 12.6915 -12.8416 -11.2702 0 0 0 
596 1 14.3246 -12.9308 -11.789 0 0 0 
470 1 2.1613 -11.7784 -12.0814 0 0 0 
469 1 2.96558 -11.2544 -11.9899 0 0 0 
468 1 3.89307 -11.1668 -11.8066 0 0 0 
467 1 4.83828 -11.2892 -12.0551 0 0 0 
1850 2 5.87 -11.3283 -11.6882 0 0 0 
1448 2 6.67885 -11.7782 -12.2055 0 0 0 
1478 2 8.00974 -11.5136 -11.1668 0 0 0 
1421 2 7.95449 -11.7623 -12.1914 0 0 0 
522 1 11.0834 -12.1844 -11.9283 0 0 0 
1692 2 6.73802 -10.7059 -11.3879 0 0 0 
1897 2 7.66879 -10.7553 -11.8892 0 0 0 
1259 2 8.88949 -10.8736 -11.3781 0 0 0 
484 1 10.1332 -10.9778 -11.7194 0 0 0 
1927 2 10.6825 -10.1267 -11.935 0 0 0 
1753 2 11.3941 -10.9108 -11.8679 0 0 0 
443 1 12.6633 -10.8691 -11.6065 0 0 0 
442 1 13.5283 -10.4174 -11.7546 0 0 0 
1262 2 3.44121 -9.93337 -11.3989 0 0 0 
720 1 4.86383 -9.9771 -11.6606 0 0 0 
91 1 6.16689 -9.61354 -11.7043 0 0 0 
1782 2 7.49169 -9.76896 -11.8701 0 0 0 
791 1 8.4349 -9.26837 -11.6474 0 0 0 
1689 2 9.52232 -9.85635 -11.8358 0 0 0 
656 1 11.0121 -9.08569 -11.6207 0 0 0 
657 1 11.6963 -9.6402 -11.4429 0 0 0 
658 1 12.6621 -9.65262 -11.4558 0 0 0 
659 1 13.6598 -9.38549 -11.3502 0 0 0 
660 1 14.5662 -9.58966 -11.713 0 0 0 
1357 2 15.6707 -9.68552 -11.7878 0 0 0 
1891 2 3.32901 -8.71766 -11.5153 0 0 0 
841 1 2.3926 -8.33389 -11.9716 0 0 0 
89 1 5.44192 -8.47737 -11.2428 0 0 0 
90 1 6.36358 -8.75442 -11.2852 0 0 0 
1251 2 7.36932 -8.57769 -11.8074 0 0 0 
1094 2 8.17329 -7.88383 -11.4741 0 0 0 
654 1 9.2098 -8.3734 -11.4199 0 0 0 
655 1 10.1434 -8.6107 -11.4674 0 0 0 
1178 2 12.0087 -8.51238 -11.8851 0 0 0 
452 1 13.0349 -8.00469 -11.5566 0 0 0 
1397 2 14.4422 -8.5421 -11.8719 0 0 0 
612 1 15.5534 -8.72398 -11.3204 0 0 0 
611 1 15.9335 -8.127 -11.9271 0 0 0 
840 1 2.54366 -7.65102 -11.2805 0 0 0 
728 1 3.49233 -7.17697 -11.8157 0 0 0 
1816 2 4.64694 -7.49492 -11.6886 0 0 0 
856 1 5.8268 -6.94288 -11.9988 0 0 0 
1591 2 6.57399 -7.73033 -11.676 0 0 0 
622 1 7.65446 -6.90016 -11.6385 0 0 0 
621 1 8.60399 -6.91585 -11.9743 0 0 0 
1504 2 9.78146 -7.47038 -11.7671 0 0 0 
1562 2 10.7772 -7.58999 -11.2117 0 0 0 
1179 2 12.104 -7.41904 -11.3838 0 0 0 
1090 2 15.0176 -7.672 -12.1255 0 0 0 
610 1 15.9094 -7.12677 -11.9261 0 0 0 
1704 2 1.98826 -6.65695 -11.748 0 0 0 
857 1 5.31526 -6.09662 -12.1646 0 0 0 
1106 2 4.54595 -6.51197 -11.3777 0 0 0 
1978 2 6.19357 -5.59367 -11.2276 0 0 0 
1159 2 8.37669 -5.91499 -11.9749 0 0 0 
620 1 9.42918 -6.54178 -11.6359 0 0 0 
811 1 10.6055 -6.11498 -12.0805 0 0 0 
1409 2 11.732 -6.04401 -11.8048 0 0 0 
1163 2 12.6489 -6.6292 -11.8287 0 0 0 
942 1 13.5961 -5.80462 -11.1519 0 0 0 
1061 2 14.527 -6.44811 -11.6272 0 0 0 
1170 2 3.18499 -5.21686 -11.2718 0 0 0 
1931 2 3.97631 -4.66951 -12.014 0 0 0 
1695 2 4.42771 -5.40468 -11.3182 0 0 0 
1684 2 5.52032 -4.75145 -11.6863 0 0 0 
817 1 6.61574 -4.60485 -11.6809 0 0 0 
1586 2 7.51113 -5.0894 -11.188 0 0 0 
1351 2 8.38449 -4.76367 -11.8183 0 0 0 
1528 2 9.11179 -5.47089 -11.2401 0 0 0 
810 1 10.3745 -5.46383 -11.3763 0 0 0 
809 1 10.4707 -4.53749 -11.2429 0 0 0 
1027 2 11.1617 -4.87718 -11.9956 0 0 0 
436 1 12.9255 -5.53153 -12.0917 0 0 0 
1740 2 13.3051 -4.7471 -11.5592 0 0 0 
1073 2 12.298 -4.64459 -11.5262 0 0 0 
1046 2 14.2947 -5.06167 -11.818 0 0 0 
291 1 15.491 -5.09198 -11.5094 0 0 0 
82 1 2.70458 -4.117 -12.0795 0 0 0 
83 1 3.35159 -4.11501 -11.3365 0 0 0 
1464 2 4.22366 -3.51564 -12.0184 0 0 0 
1321 2 5.20382 -3.71948 -11.2526 0 0 0 
1257 2 6.79975 -3.46674 -11.4749 0 0 0 
23 1 7.5508 -4.12147 -12.2176 0 0 0 
24 1 7.98964 -3.82605 -11.3031 0 0 0 
1353 2 9.04342 -3.81238 -12.1093 0 0 0 
1325 2 9.4329 -4.4253 -11.1467 0 0 0 
1497 2 10.2174 -3.68978 -11.939 0 0 0 
1723 2 11.338 -3.40584 -11.98 0 0 0 
808 1 11.2747 -4.08769 -11.1374 0 0 0 
807 1 12.1275 -3.6054 -11.1848 0 0 0 
806 1 13.0366 -3.4849 -11.4891 0 0 0 
805 1 13.6032 -3.89111 -12.1653 0 0 0 
1336 2 14.9576 -4.0554 -12.2012 0 0 0 
229 1 14.9968 -3.61409 -11.151 0 0 0 
1291 2 15.9688 -3.33421 -11.821 0 0 0 
832 1 0.820403 -2.57536 -11.3368 0 0 0 
1910 2 3.06793 -3.05871 -11.4358 0 0 0 
342 1 4.191 -2.37255 -11.7763 0 0 0 
1750 2 5.23966 -2.76241 -11.6413 0 0 0 
1210 2 6.61166 -2.48874 -11.8861 0 0 0 
1708 2 7.66491 -2.88809 -11.3709 0 0 0 
1622 2 8.38848 -2.87541 -12.214 0 0 0 
1864 2 9.09793 -3.32116 -11.2195 0 0 0 
312 1 9.99363 -2.6545 -11.2206 0 0 0 
311 1 10.63 -2.65073 -11.9459 0 0 0 
1020 2 13.1621 -2.84545 -12.2059 0 0 0 
1434 2 12.3568 -2.54558 -11.4256 0 0 0 
1377 2 13.5793 -2.38765 -11.3111 0 0 0 
230 1 14.4955 -3.12354 -11.9353 0 0 0 
671 1 16.5948 -2.29459 -11.9838 0 0 0 
7 1 2.15553 -2.10076 -11.2119 0 0 0 
8 1 1.99806 -1.23795 -11.5728 0 0 0 
1282 2 5.6756 -1.86624 -11.3811 0 0 0 
1650 2 8.11121 -1.86574 -12.0571 0 0 0 
1038 2 9.02748 -1.48293 -11.7418 0 0 0 
1796 2 10.0783 -1.48841 -11.2211 0 0 0 
1362 2 11.3211 -1.86216 -11.417 0 0 0 
402 1 12.8985 -1.79143 -11.7643 0 0 0 
1727 2 14.4367 -1.88049 -11.9106 0 0 0 
401 1 13.6759 -1.23912 -11.5955 0 0 0 
1993 2 15.5482 -2.11137 -11.805 0 0 0 
9 1 2.66076 -0.60758 -11.324 0 0 0 
638 1 4.32268 -0.917273 -11.3575 0 0 0 
1838 2 5.36235 -1.05521 -11.9281 0 0 0 
1031 2 6.49104 -1.08868 -11.4382 0 0 0 
1790 2 5.62136 -0.150086 -11.1412 0 0 0 
1066 2 7.64726 -0.707533 -11.4187 0 0 0 
1863 2 8.42114 -0.69673 -12.128 0 0 0 
1354 2 10.6729 -0.598997 -12.0136 0 0 0 
327 1 11.807 -0.93795 -11.2998 0 0 0 
328 1 12.4475 -0.704664 -12.0027 0 0 0 
1948 2 13.9231 -0.241817 -11.4824 0 0 0 
1714 2 15.0671 -0.812259 -11.7763 0 0 0 
242 1 16.4068 -0.988379 -11.6865 0 0 0 
243 1 16.004 -0.329953 -11.138 0 0 0 
1013 2 16.9671 -0.076735 -12.1017 0 0 0 
12 1 4.72273 0.677299 -11.1493 0 0 0 
13 1 5.70876 0.936328 -11.275 0 0 0 
1228 2 6.76918 0.0203885 -11.3879 0 0 0 
1025 2 7.78286 0.442205 -11.6364 0 0 0 
886 1 8.7008 0.651819 -11.1706 0 0 0 
885 1 9.38366 0.401992 -11.6878 0 0 0 
884 1 10.3116 0.527186 -11.5261 0 0 0 
883 1 11.1612 0.310292 -11.2344 0 0 0 
1699 2 12.6686 0.906455 -12.0536 0 0 0 
1151 2 12.2226 0.339352 -11.3247 0 0 0 
1715 2 13.8692 0.802477 -11.9379 0 0 0 
57 1 14.829 0.2037 -11.9688 0 0 0 
1953 2 -10.3994 1.93528 -11.3852 0 0 0 
14 1 6.43885 1.40223 -11.7168 0 0 0 
15 1 7.26154 1.83904 -11.9311 0 0 0 
887 1 8.01944 1.35175 -11.2014 0 0 0 
1677 2 9.12651 1.58212 -11.3948 0 0 0 
1224 2 10.1982 1.73753 -11.8634 0 0 0 
1131 2 11.1129 1.30721 -11.956 0 0 0 
1920 2 12.4168 1.64056 -11.2017 0 0 0 
1273 2 13.5236 1.9275 -11.5225 0 0 0 
249 1 15.1638 1.8458 -11.748 0 0 0 
757 1 9.72945 2.66492 -11.2814 0 0 0 
1990 2 10.6734 2.77874 -11.9626 0 0 0 
874 1 11.5521 2.23844 -11.4078 0 0 0 
1399 2 11.4158 3.25742 -11.2462 0 0 0 
1173 2 12.6166 2.77109 -11.2757 0 0 0 
1475 2 14.13 2.8271 -11.9087 0 0 0 
1767 2 16.173 2.70558 -11.2763 0 0 0 
756 1 10.2669 3.43897 -11.225 0 0 0 
254 1 13.7731 3.86463 -11.8584 0 0 0 
1033 2 13.5688 4.95129 -11.4771 0 0 0 
573 1 7.91722 -14.5636 -10.56 0 0 0 
1413 2 3.6702 -14.3427 -11.095 0 0 0 
1849 2 7.30478 -13.7017 -10.2549 0 0 0 
472 1 2.6306 -13.0289 -11.0039 0 0 0 
473 1 3.15293 -12.9765 -10.209 0 0 0 
1430 2 4.30862 -12.6063 -10.313 0 0 0 
1296 2 7.80549 -12.5566 -10.4896 0 0 0 
461 1 8.95759 -12.3728 -10.9137 0 0 0 
581 1 13.2074 -12.3267 -10.5587 0 0 0 
595 1 14.3567 -13.1811 -10.7952 0 0 0 
114 1 5.72838 -11.5795 -10.6611 0 0 0 
1530 2 6.83206 -11.768 -10.9976 0 0 0 
460 1 8.74185 -11.6861 -10.2927 0 0 0 
524 1 10.6648 -12.1703 -10.3117 0 0 0 
523 1 11.2139 -11.7632 -11.0007 0 0 0 
1860 2 12.2813 -11.8134 -10.9986 0 0 0 
582 1 12.944 -11.476 -10.1468 0 0 0 
719 1 4.29494 -10.4032 -11.0665 0 0 0 
718 1 3.58804 -10.7317 -10.5362 0 0 0 
115 1 5.65735 -10.638 -10.6149 0 0 0 
1086 2 7.39862 -11.0338 -10.287 0 0 0 
1997 2 7.75543 -10.3022 -10.9457 0 0 0 
459 1 8.55598 -10.7034 -10.2486 0 0 0 
483 1 9.76642 -10.8835 -10.839 0 0 0 
1646 2 10.9729 -10.6234 -11.0232 0 0 0 
1424 2 12.1514 -10.7712 -10.5134 0 0 0 
1924 2 13.5434 -10.1961 -10.6341 0 0 0 
1148 2 3.61169 -9.43747 -10.451 0 0 0 
1267 2 5.51588 -9.54198 -10.8482 0 0 0 
1862 2 4.44779 -9.01731 -10.8946 0 0 0 
1034 2 6.87794 -9.70523 -10.8977 0 0 0 
790 1 7.93606 -9.29955 -10.8165 0 0 0 
457 1 8.84788 -8.93304 -10.2023 0 0 0 
1453 2 9.08033 -9.94772 -10.8318 0 0 0 
456 1 9.80693 -8.92843 -10.1752 0 0 0 
455 1 10.743 -8.97674 -10.5205 0 0 0 
1132 2 10.2642 -9.82209 -10.84 0 0 0 
1873 2 11.2619 -9.84104 -10.172 0 0 0 
1532 2 13.3845 -9.09287 -10.2985 0 0 0 
1050 2 14.6713 -9.68676 -10.3097 0 0 0 
730 1 3.41187 -8.42139 -10.3446 0 0 0 
1450 2 4.91866 -8.25145 -10.252 0 0 0 
1693 2 6.14112 -7.78154 -10.1011 0 0 0 
789 1 7.33624 -8.54696 -10.5705 0 0 0 
1954 2 8.61968 -7.80162 -10.1909 0 0 0 
1389 2 9.97078 -7.99958 -10.5045 0 0 0 
454 1 11.5462 -8.52264 -10.5872 0 0 0 
453 1 12.4798 -8.3389 -10.9189 0 0 0 
1687 2 13.8834 -8.31465 -11.0237 0 0 0 
615 1 13.4887 -7.92288 -10.032 0 0 0 
613 1 14.97 -8.69741 -10.5054 0 0 0 
839 1 2.09719 -7.57654 -10.39 0 0 0 
1241 2 2.9955 -7.12737 -10.2517 0 0 0 
729 1 3.55368 -7.68511 -11.0131 0 0 0 
88 1 5.45587 -7.49198 -10.9813 0 0 0 
1187 2 4.45488 -7.21239 -10.5448 0 0 0 
1837 2 6.28434 -6.87143 -11.0311 0 0 0 
1370 2 7.20126 -7.47275 -10.5697 0 0 0 
1329 2 8.34974 -6.81028 -10.4963 0 0 0 
1175 2 9.11203 -7.41265 -11.0345 0 0 0 
619 1 10.0801 -6.87122 -10.9702 0 0 0 
618 1 10.7429 -7.2186 -10.2478 0 0 0 
617 1 11.7373 -7.19288 -10.2081 0 0 0 
1962 2 13.5412 -6.71201 -10.4564 0 0 0 
1264 2 14.3934 -7.29175 -10.8936 0 0 0 
1449 2 14.9114 -7.67496 -10.0535 0 0 0 
1696 2 2.64791 -6.17606 -10.6956 0 0 0 
1344 2 3.63563 -6.46242 -10.974 0 0 0 
86 1 5.32941 -5.60743 -10.6697 0 0 0 
1659 2 4.46949 -6.08945 -10.317 0 0 0 
87 1 5.30565 -6.62665 -10.7517 0 0 0 
1951 2 6.29176 -6.1752 -10.1638 0 0 0 
623 1 7.27818 -6.3905 -10.922 0 0 0 
624 1 7.47894 -5.82393 -10.1219 0 0 0 
1229 2 8.25836 -5.83204 -10.7854 0 0 0 
1697 2 9.26835 -6.29328 -10.5406 0 0 0 
1053 2 10.2948 -6.10372 -10.057 0 0 0 
1608 2 11.0304 -6.18054 -10.8104 0 0 0 
944 1 11.9272 -6.10614 -10.2651 0 0 0 
943 1 12.7083 -6.05884 -10.918 0 0 0 
941 1 14.5012 -5.66361 -10.9085 0 0 0 
940 1 15.3636 -5.99689 -10.8172 0 0 0 
1507 2 14.5281 -6.48363 -10.0992 0 0 0 
835 1 2.72803 -4.61013 -10.4038 0 0 0 
85 1 5.02872 -4.73902 -10.673 0 0 0 
818 1 6.5104 -4.63936 -10.7215 0 0 0 
26 1 8.59932 -5.13154 -10.1723 0 0 0 
1024 2 9.87432 -4.7422 -10.1411 0 0 0 
1561 2 11.5126 -5.28017 -10.957 0 0 0 
1639 2 12.4897 -5.09058 -10.4585 0 0 0 
1611 2 13.5966 -5.00357 -10.4337 0 0 0 
1832 2 14.8578 -4.76611 -10.165 0 0 0 
1049 2 16.3528 -5.02533 -10.0631 0 0 0 
834 1 2.18812 -3.84478 -10.8266 0 0 0 
84 1 4.20872 -4.28586 -10.95 0 0 0 
1014 2 6.1743 -3.78635 -10.2559 0 0 0 
1625 2 7.25789 -3.97672 -10.5424 0 0 0 
25 1 8.42416 -4.43409 -10.7827 0 0 0 
1469 2 10.0657 -3.44972 -10.6267 0 0 0 
1010 2 10.8978 -4.03772 -10.1105 0 0 0 
1996 2 11.9526 -4.24218 -10.1999 0 0 0 
1414 2 13.1875 -4.07582 -10.5498 0 0 0 
1207 2 14.2429 -4.3459 -11.0243 0 0 0 
228 1 14.8028 -3.51086 -10.1616 0 0 0 
290 1 15.9223 -4.35879 -11.0511 0 0 0 
289 1 15.9299 -3.44516 -10.7868 0 0 0 