ITEM: TIMESTEP
10000000
ITEM: NUMBER OF ATOMS
1300
ITEM: BOX BOUNDS pp pp pp
-3.0000000000000000e+01 3.0000000000000000e+01
-3.0000000000000000e+01 3.0000000000000000e+01
-3.0000000000000000e+01 3.0000000000000000e+01
ITEM: ATOMS id type x y z ix iy iz 
1167 2 -12.7725 -14.4833 -17.9836 0 0 0 
1072 2 2.49985 -5.35293 -17.8708 0 0 0 
471 1 -0.918796 -11.4743 -17.374 0 0 0 
472 1 -0.0536128 -11.8955 -16.9725 0 0 0 
469 1 -2.16855 -10.2748 -16.9924 0 0 0 
470 1 -1.68959 -10.9388 -17.4228 0 0 0 
265 1 6.25527 -6.31128 -16.7447 0 0 0 
264 1 6.13015 -5.72523 -17.4948 0 0 0 
263 1 5.85842 -4.80391 -17.3788 0 0 0 
262 1 5.88249 -3.89618 -16.9666 0 0 0 
454 1 -8.68774 -2.38474 -16.8228 0 0 0 
453 1 -8.8773 -1.4539 -16.8444 0 0 0 
1011 2 -6.83515 -2.03239 -16.7924 0 0 0 
1012 2 -9.40206 -0.58728 -17.347 0 0 0 
1082 2 -7.5194 -1.00368 -16.6753 0 0 0 
1058 2 16.274 16.9345 -16.968 0 0 0 
1244 2 17.735 17.2593 -17.6245 0 0 0 
1118 2 4.48186 -15.5763 -15.9627 0 0 0 
1161 2 5.74432 -15.9034 -16.1787 0 0 0 
1127 2 -6.85007 -12.8959 -15.5905 0 0 0 
473 1 0.467297 -12.4357 -16.2648 0 0 0 
474 1 1.25905 -12.2006 -15.7518 0 0 0 
1054 2 2.45815 -11.6032 -15.757 0 0 0 
467 1 -3.84565 -10.0415 -16.2247 0 0 0 
468 1 -3.02491 -10.4501 -16.6056 0 0 0 
1009 2 1.44319 -11.0316 -15.8973 0 0 0 
466 1 -4.77704 -9.73968 -15.9191 0 0 0 
267 1 7.12381 -7.78521 -15.9021 0 0 0 
268 1 7.88474 -8.34975 -15.6451 0 0 0 
462 1 -3.83107 -7.1869 -15.8717 0 0 0 
266 1 6.75965 -7.01684 -16.3218 0 0 0 
461 1 -4.39354 -6.4121 -15.6859 0 0 0 
460 1 -4.65835 -5.47352 -15.7651 0 0 0 
459 1 -5.1555 -4.54726 -15.8398 0 0 0 
458 1 -5.6789 -3.63588 -15.8386 0 0 0 
455 1 -8.08808 -3.10343 -16.6396 0 0 0 
456 1 -7.31157 -3.14061 -16.0751 0 0 0 
457 1 -6.3675 -2.94868 -15.7251 0 0 0 
261 1 6.21917 -3.2141 -16.3439 0 0 0 
1067 2 0.721373 -1.53881 -16.1154 0 0 0 
452 1 -8.58 -0.582156 -16.6131 0 0 0 
451 1 -8.16899 0.0543782 -16.0646 0 0 0 
1027 2 -1.64486 3.64273 -16.3866 0 0 0 
524 1 11.1329 4.21034 -15.5695 0 0 0 
475 1 1.65834 -12.1741 -14.8344 0 0 0 
1243 2 2.8949 -11.4265 -14.4513 0 0 0 
465 1 -5.32633 -9.11538 -15.4056 0 0 0 
269 1 8.01305 -9.12281 -15.0433 0 0 0 
464 1 -5.30556 -8.28444 -15.0389 0 0 0 
463 1 -4.51399 -7.78553 -15.4951 0 0 0 
250 1 3.45946 -8.21715 -14.5317 0 0 0 
1008 2 5.09246 -8.35027 -14.7423 0 0 0 
1062 2 6.43808 -7.80511 -14.705 0 0 0 
1173 2 -4.59808 -6.85379 -14.551 0 0 0 
1101 2 -9.8274 -5.43102 -14.7647 0 0 0 
720 1 -4.41765 -4.8127 -14.5063 0 0 0 
1171 2 -8.6826 -3.83082 -15.1051 0 0 0 
794 1 -8.22458 -2.75556 -14.522 0 0 0 
260 1 6.50288 -2.8898 -15.5192 0 0 0 
259 1 5.84954 -3.03932 -14.805 0 0 0 
1281 2 -8.36023 -0.69867 -15.4709 0 0 0 
450 1 -7.67309 0.594709 -15.3987 0 0 0 
449 1 -7.01463 1.26092 -15.1816 0 0 0 
448 1 -6.32596 1.74424 -14.7639 0 0 0 
7 1 -7.69875 2.85089 -14.5896 0 0 0 
447 1 -5.69341 2.39737 -14.7138 0 0 0 
446 1 -5.53938 3.32591 -14.7225 0 0 0 
521 1 12.9289 2.29994 -14.4498 0 0 0 
522 1 12.3482 2.93557 -14.8482 0 0 0 
5 1 -9.31842 3.53235 -14.7564 0 0 0 
6 1 -8.3598 3.47909 -14.9572 0 0 0 
1272 2 -6.66705 3.35546 -14.6045 0 0 0 
526 1 9.78024 3.55671 -14.7363 0 0 0 
525 1 10.2085 4.0125 -15.4756 0 0 0 
523 1 11.6266 3.40093 -15.2868 0 0 0 
1071 2 -2.99383 -15.8073 -13.3395 0 0 0 
1210 2 -10.2865 -15.2473 -13.9802 0 0 0 
820 1 -6.41625 -13.9158 -13.74 0 0 0 
819 1 -6.42122 -12.961 -13.9368 0 0 0 
476 1 2.36629 -12.2564 -14.1478 0 0 0 
477 1 2.95215 -12.4377 -13.3749 0 0 0 
818 1 -6.47652 -12.0469 -14.1794 0 0 0 
817 1 -5.78827 -11.3443 -13.9006 0 0 0 
1260 2 4.95646 -9.34605 -13.68 0 0 0 
234 1 6.05615 -9.17057 -13.5336 0 0 0 
716 1 -4.15458 -7.86356 -14.0618 0 0 0 
249 1 4.0081 -8.73816 -13.9331 0 0 0 
235 1 6.55441 -8.35387 -13.5384 0 0 0 
270 1 7.41805 -8.87167 -14.2437 0 0 0 
271 1 7.83069 -8.42708 -13.4115 0 0 0 
1170 2 -5.62776 -6.83732 -14.2403 0 0 0 
715 1 -4.7964 -7.45084 -13.4603 0 0 0 
717 1 -3.69214 -7.04045 -13.8725 0 0 0 
251 1 3.06271 -7.39345 -14.2903 0 0 0 
252 1 2.39107 -6.74494 -14.2377 0 0 0 
1239 2 4.071 -7.09513 -13.6298 0 0 0 
236 1 6.32042 -7.37642 -13.52 0 0 0 
718 1 -3.22198 -6.21639 -13.9927 0 0 0 
253 1 2.06935 -5.81432 -14.1385 0 0 0 
1128 2 9.46205 -6.29993 -14.2254 0 0 0 
677 1 -10.0834 -4.44831 -13.7028 0 0 0 
1184 2 -9.13353 -4.54752 -14.2692 0 0 0 
721 1 -5.30708 -4.76601 -14.198 0 0 0 
719 1 -3.87918 -5.41379 -13.9402 0 0 0 
254 1 2.0429 -4.86788 -13.9888 0 0 0 
512 1 14.4646 -4.87682 -13.7257 0 0 0 
673 1 -13.3084 -3.4117 -13.4442 0 0 0 
676 1 -10.8126 -3.79857 -13.7499 0 0 0 
1253 2 -9.26528 -3.70474 -13.4143 0 0 0 
795 1 -8.12365 -3.66475 -14.2213 0 0 0 
796 1 -8.35281 -4.3757 -13.5683 0 0 0 
722 1 -5.96419 -4.13462 -13.8607 0 0 0 
255 1 2.46741 -4.07259 -13.7921 0 0 0 
256 1 3.31828 -3.67946 -13.9554 0 0 0 
258 1 5.09116 -3.3658 -14.3636 0 0 0 
1199 2 12.9221 -3.49926 -13.6142 0 0 0 
513 1 14.5187 -3.90436 -13.9211 0 0 0 
674 1 -12.458 -3.05542 -13.7371 0 0 0 
675 1 -11.5458 -3.21967 -13.9728 0 0 0 
1052 2 -7.36074 -2.87147 -13.8921 0 0 0 
257 1 4.15178 -3.28567 -14.1516 0 0 0 
792 1 -8.93666 -1.64997 -13.4654 0 0 0 
793 1 -8.18553 -1.88668 -14.0177 0 0 0 
728 1 -6.95855 -0.379196 -13.3904 0 0 0 
727 1 -5.97846 -0.436753 -13.4653 0 0 0 
1130 2 0.129545 0.346468 -13.6808 0 0 0 
518 1 14.1177 0.197236 -13.4462 0 0 0 
520 1 13.1909 1.55211 -13.8996 0 0 0 
4 1 -9.96075 3.23497 -14.1265 0 0 0 
1090 2 -6.78805 2.43868 -13.918 0 0 0 
8 1 -7.55069 3.22271 -13.6845 0 0 0 
425 1 -2.6706 2.40221 -13.5158 0 0 0 
1175 2 11.083 3.14366 -14.1418 0 0 0 
3 1 -10.5765 3.63016 -13.4402 0 0 0 
445 1 -5.83656 4.17734 -14.3519 0 0 0 
527 1 9.76917 3.42547 -13.8221 0 0 0 
444 1 -5.68143 5.0757 -14.4384 0 0 0 
443 1 -4.92961 5.72209 -14.2907 0 0 0 
442 1 -4.32078 6.47881 -14.0843 0 0 0 
1108 2 -11.9252 8.7987 -13.4618 0 0 0 
1139 2 13.1375 17.3339 -13.5734 0 0 0 
821 1 -6.60377 -14.6353 -13.1446 0 0 0 
478 1 3.0149 -12.3085 -12.3907 0 0 0 
1024 2 -11.7725 -11.2379 -12.5086 0 0 0 
816 1 -5.44935 -11.6765 -13.0622 0 0 0 
815 1 -4.71379 -12.0996 -12.4901 0 0 0 
661 1 -17.1237 -10.4823 -12.7769 0 0 0 
660 1 -16.3447 -10.449 -12.2794 0 0 0 
658 1 -14.6512 -10.522 -12.6094 0 0 0 
1151 2 -11.1891 -10.3435 -13.2784 0 0 0 
662 1 -17.8474 -9.80775 -12.9424 0 0 0 
657 1 -14.0274 -9.84266 -12.7566 0 0 0 
656 1 -13.1881 -9.3749 -12.8366 0 0 0 
655 1 -12.3874 -9.2679 -12.3687 0 0 0 
233 1 6.04678 -9.44886 -12.6551 0 0 0 
500 1 8.50267 -9.66553 -12.4781 0 0 0 
663 1 -17.8335 -8.83698 -12.852 0 0 0 
664 1 -17.3375 -8.1818 -12.3464 0 0 0 
248 1 4.64851 -8.38771 -13.2345 0 0 0 
247 1 4.9159 -7.91129 -12.3829 0 0 0 
272 1 7.98889 -8.30763 -12.4851 0 0 0 
665 1 -16.8847 -7.32975 -12.4376 0 0 0 
714 1 -5.57023 -7.00039 -13.0619 0 0 0 
237 1 6.08318 -6.94862 -12.6678 0 0 0 
1055 2 9.1903 -6.73343 -12.4472 0 0 0 
666 1 -16.59 -6.37093 -12.5372 0 0 0 
1006 2 5.17627 -6.23572 -12.927 0 0 0 
678 1 -9.35211 -5.03375 -13.3224 0 0 0 
1110 2 -9.77389 -4.5752 -12.3944 0 0 0 
679 1 -8.67281 -5.48038 -12.7949 0 0 0 
680 1 -7.72095 -5.51287 -12.6133 0 0 0 
1224 2 -3.15489 -4.72079 -12.5327 0 0 0 
511 1 14.27 -4.82845 -12.7863 0 0 0 
671 1 -14.9546 -3.57385 -12.5961 0 0 0 
672 1 -14.1006 -3.3558 -12.9437 0 0 0 
1257 2 -13.0237 -3.9162 -12.4955 0 0 0 
1292 2 -8.24901 -3.38433 -13.1979 0 0 0 
797 1 -8.7255 -4.35663 -12.6979 0 0 0 
1029 2 -7.21403 -3.89967 -13.1354 0 0 0 
723 1 -6.17818 -3.413 -13.2964 0 0 0 
277 1 8.54016 -4.25358 -12.4242 0 0 0 
1044 2 -8.42918 -2.34431 -12.7375 0 0 0 
724 1 -5.88556 -2.89262 -12.5123 0 0 0 
515 1 14.9081 -2.33503 -12.8756 0 0 0 
514 1 14.5117 -3.14833 -13.2028 0 0 0 
790 1 -10.5898 -1.28341 -12.6448 0 0 0 
791 1 -9.71474 -1.50418 -12.9191 0 0 0 
1166 2 -8.14604 -1.24151 -12.3264 0 0 0 
726 1 -6.0267 -1.18921 -12.7943 0 0 0 
1225 2 13.8388 -1.94955 -12.781 0 0 0 
516 1 14.7331 -1.37988 -12.7845 0 0 0 
789 1 -11.4079 -0.605718 -12.6886 0 0 0 
729 1 -7.85967 -0.0458561 -13.2445 0 0 0 
517 1 14.1439 -0.760726 -13.2766 0 0 0 
730 1 -8.10568 0.531813 -12.5093 0 0 0 
423 1 -3.60913 0.889762 -12.5921 0 0 0 
519 1 13.7216 1.0398 -13.2564 0 0 0 
424 1 -3.22585 1.64185 -13.3009 0 0 0 
9 1 -7.09836 3.08321 -12.7973 0 0 0 
10 1 -6.26733 3.03579 -12.2338 0 0 0 
426 1 -2.14767 2.92555 -12.9318 0 0 0 
528 1 9.87324 3.0746 -12.951 0 0 0 
2 1 -9.89268 3.69101 -12.6964 0 0 0 
13 1 -4.20169 4.13154 -12.2413 0 0 0 
1074 2 -3.5951 3.41969 -12.8875 0 0 0 
1125 2 -5.51733 4.95763 -12.7319 0 0 0 
14 1 -4.17126 4.8687 -12.9352 0 0 0 
15 1 -4.65057 5.65602 -12.8238 0 0 0 
441 1 -3.78073 6.71305 -13.3187 0 0 0 
440 1 -3.79709 6.96904 -12.3568 0 0 0 
1053 2 6.88196 11.4171 -12.2449 0 0 0 
1091 2 -5.34242 13.5697 -12.6463 0 0 0 
822 1 -6.70553 -14.537 -12.1763 0 0 0 
823 1 -5.9675 -14.193 -11.5833 0 0 0 
824 1 -5.32657 -13.5802 -11.2055 0 0 0 
479 1 3.40487 -12.2395 -11.5126 0 0 0 
814 1 -4.40223 -11.7899 -11.5458 0 0 0 
659 1 -15.5067 -10.8121 -12.2044 0 0 0 
653 1 -11.5579 -10.0372 -11.2133 0 0 0 
231 1 5.15817 -10.5697 -11.3605 0 0 0 
654 1 -11.423 -9.4323 -11.9341 0 0 0 
232 1 5.49767 -9.85927 -12.0111 0 0 0 
499 1 7.79072 -9.95043 -11.8817 0 0 0 
501 1 9.31188 -9.42976 -11.9095 0 0 0 
502 1 9.90961 -8.69232 -11.6539 0 0 0 
712 1 -6.16643 -6.74499 -11.3295 0 0 0 
713 1 -5.97529 -7.06066 -12.2192 0 0 0 
1282 2 3.63939 -7.32729 -11.1898 0 0 0 
246 1 5.06425 -7.71121 -11.4409 0 0 0 
273 1 8.3837 -7.48744 -12.1972 0 0 0 
274 1 8.80702 -6.9069 -11.4961 0 0 0 
667 1 -16.4811 -5.58123 -11.991 0 0 0 
1223 2 -8.26085 -6.09496 -11.7646 0 0 0 
242 1 3.25227 -5.93962 -11.2026 0 0 0 
241 1 3.31056 -6.31974 -12.1442 0 0 0 
240 1 4.16914 -6.51941 -11.7141 0 0 0 
239 1 5.14682 -6.46298 -11.5103 0 0 0 
238 1 6.02442 -6.3427 -11.9048 0 0 0 
275 1 8.79259 -5.98487 -11.7531 0 0 0 
668 1 -16.9004 -4.91701 -11.4534 0 0 0 
1297 2 -15.6274 -4.90161 -12.1878 0 0 0 
1142 2 -10.7942 -5.51255 -12.188 0 0 0 
681 1 -7.14863 -5.09938 -11.8116 0 0 0 
682 1 -6.41964 -4.5217 -11.609 0 0 0 
276 1 8.80763 -5.05847 -11.9399 0 0 0 
510 1 14.1304 -4.58217 -11.8489 0 0 0 
669 1 -16.427 -4.08591 -11.5145 0 0 0 
670 1 -15.5855 -3.70035 -11.8048 0 0 0 
798 1 -9.09926 -4.00327 -11.8947 0 0 0 
1102 2 -8.06721 -3.35401 -12.1971 0 0 0 
1073 2 -7.02822 -3.86697 -12.0122 0 0 0 
683 1 -5.9195 -3.70176 -11.5027 0 0 0 
278 1 8.53905 -3.33505 -12.0426 0 0 0 
509 1 13.4418 -4.3683 -11.1868 0 0 0 
1208 2 -8.56288 -2.69025 -11.6174 0 0 0 
1202 2 13.2666 -2.48977 -11.8965 0 0 0 
1004 2 -9.44495 -2.05717 -11.1178 0 0 0 
725 1 -5.96743 -1.94999 -12.1739 0 0 0 
282 1 10.5513 -1.91996 -11.43 0 0 0 
284 1 12.1266 -1.96737 -11.6424 0 0 0 
283 1 11.2807 -2.08444 -12.0695 0 0 0 
285 1 12.7368 -1.34645 -11.9166 0 0 0 
287 1 14.0014 -1.5338 -11.1629 0 0 0 
787 1 -12.3165 -0.419099 -11.1953 0 0 0 
788 1 -12.1642 -0.801398 -12.0512 0 0 0 
417 1 -7.87447 -0.507232 -11.4819 0 0 0 
418 1 -6.98353 -0.89355 -11.5879 0 0 0 
419 1 -6.00972 -0.902755 -11.6776 0 0 0 
420 1 -5.04478 -0.740619 -11.7623 0 0 0 
421 1 -4.25413 -0.247254 -11.4767 0 0 0 
286 1 13.5067 -0.90459 -11.767 0 0 0 
731 1 -8.91487 0.950966 -12.1978 0 0 0 
422 1 -3.56939 0.321901 -11.7529 0 0 0 
733 1 -10.2357 1.40862 -11.1506 0 0 0 
732 1 -9.60743 1.51521 -11.9143 0 0 0 
11 1 -5.41715 2.83776 -11.7459 0 0 0 
12 1 -4.59384 3.31479 -11.9032 0 0 0 
427 1 -1.63264 2.76934 -12.1705 0 0 0 
428 1 -1.87617 2.64561 -11.2666 0 0 0 
529 1 10.2037 3.25347 -12.0445 0 0 0 
1 1 -9.38156 4.0954 -11.9328 0 0 0 
530 1 10.5649 3.86919 -11.3774 0 0 0 
16 1 -4.76815 6.32104 -12.1948 0 0 0 
17 1 -5.28256 6.59509 -11.4027 0 0 0 
439 1 -3.73057 7.16242 -11.4111 0 0 0 
1132 2 6.06409 8.00944 -11.6318 0 0 0 
22 1 -3.95386 10.1794 -11.1836 0 0 0 
32 1 -5.55396 11.9694 -11.513 0 0 0 
24 1 -4.11745 11.905 -11.2349 0 0 0 
1157 2 -15.9749 12.5875 -12.1464 0 0 0 
31 1 -5.91712 12.9203 -11.6226 0 0 0 
25 1 -4.53889 12.5597 -11.8303 0 0 0 
27 1 -4.59869 14.0887 -11.5055 0 0 0 
26 1 -4.40017 13.4581 -12.1291 0 0 0 
29 1 -5.85446 14.5626 -11.1248 0 0 0 
1215 2 -6.98804 -15.2602 -10.3523 0 0 0 
1153 2 -11.0849 -12.722 -10.8568 0 0 0 
825 1 -5.24242 -12.854 -10.6808 0 0 0 
826 1 -4.89135 -11.9372 -10.6588 0 0 0 
827 1 -4.24846 -11.358 -10.2261 0 0 0 
480 1 3.70504 -11.6938 -10.7459 0 0 0 
652 1 -11.5768 -10.1761 -10.219 0 0 0 
813 1 -4.63403 -10.9629 -11.0758 0 0 0 
812 1 -5.17805 -10.2741 -10.7075 0 0 0 
1252 2 -3.37445 -10.8427 -10.9411 0 0 0 
230 1 5.61993 -10.8791 -10.5262 0 0 0 
811 1 -5.24592 -9.52726 -10.1115 0 0 0 
498 1 7.76581 -9.43981 -11.0454 0 0 0 
497 1 8.01551 -9.03478 -10.1772 0 0 0 
503 1 10.5398 -8.06829 -11.0862 0 0 0 
754 1 -12.1364 -7.2393 -10.5788 0 0 0 
753 1 -11.246 -6.87148 -10.8356 0 0 0 
1182 2 -7.1331 -6.80011 -10.5423 0 0 0 
711 1 -5.73709 -6.70789 -10.4004 0 0 0 
245 1 4.66802 -7.30953 -10.6726 0 0 0 
504 1 11.2632 -7.40721 -10.8338 0 0 0 
1141 2 -17.0829 -6.41398 -10.4199 0 0 0 
752 1 -10.4615 -6.37637 -11.1063 0 0 0 
1007 2 -6.7504 -5.83231 -10.7413 0 0 0 
244 1 4.22722 -6.63924 -10.1139 0 0 0 
243 1 3.49085 -6.12178 -10.2572 0 0 0 
506 1 11.2906 -5.57556 -10.3736 0 0 0 
505 1 11.2834 -6.54989 -10.4624 0 0 0 
751 1 -9.98366 -5.53666 -10.7906 0 0 0 
750 1 -9.54484 -5.0353 -10.0595 0 0 0 
1111 2 -7.70453 -5.10761 -10.8045 0 0 0 
1041 2 4.14206 -5.48755 -11.0458 0 0 0 
507 1 11.6903 -4.68043 -10.452 0 0 0 
508 1 12.6361 -4.59692 -10.7008 0 0 0 
799 1 -9.30881 -3.60683 -11.0413 0 0 0 
800 1 -9.44707 -3.56461 -10.0597 0 0 0 
746 1 -6.95231 -4.25335 -10.4726 0 0 0 
745 1 -7.29035 -3.40106 -10.8486 0 0 0 
1195 2 -5.79433 -4.43584 -10.233 0 0 0 
744 1 -7.72352 -2.53589 -10.9045 0 0 0 
684 1 -6.17481 -3.12272 -10.8008 0 0 0 
685 1 -6.1138 -2.29614 -10.3004 0 0 0 
279 1 8.58031 -3.08411 -11.0735 0 0 0 
280 1 9.35541 -2.99906 -10.4938 0 0 0 
281 1 10.0433 -2.37274 -10.7832 0 0 0 
1060 2 -9.24768 -1.68074 -10.0048 0 0 0 
743 1 -8.32363 -1.83934 -10.7339 0 0 0 
1138 2 -6.80489 -1.47757 -10.1365 0 0 0 
289 1 12.9746 -1.81872 -10.1002 0 0 0 
288 1 13.5315 -2.20516 -10.733 0 0 0 
786 1 -12.4674 0.0381606 -10.3877 0 0 0 
415 1 -8.88127 0.753828 -10.4077 0 0 0 
416 1 -8.51457 0.0262871 -10.9847 0 0 0 
734 1 -9.95445 1.95521 -10.3749 0 0 0 
429 1 -1.7992 3.33885 -10.529 0 0 0 
1226 2 11.0515 3.65505 -10.3997 0 0 0 
531 1 10.4395 4.66981 -10.8319 0 0 0 
1087 2 10.0027 5.40432 -10.2328 0 0 0 
18 1 -5.92412 7.15226 -10.7941 0 0 0 
438 1 -3.55753 7.23312 -10.5139 0 0 0 
19 1 -5.47671 7.87828 -10.4279 0 0 0 
20 1 -4.8978 8.62947 -10.6323 0 0 0 
437 1 -3.2994 8.02657 -10.1422 0 0 0 
21 1 -4.2242 9.26693 -10.8897 0 0 0 
34 1 -6.24965 10.7018 -10.4273 0 0 0 
23 1 -3.74919 11.0928 -10.8627 0 0 0 
35 1 -7.00738 11.2404 -10.1347 0 0 0 
36 1 -7.51961 12.041 -10.3874 0 0 0 
33 1 -5.65137 11.1562 -10.9824 0 0 0 
37 1 -8.16198 12.8593 -10.4159 0 0 0 
30 1 -5.82782 13.6485 -11.0458 0 0 0 
28 1 -4.95446 14.8302 -11.0501 0 0 0 
1078 2 -11.0049 15.722 -10.3297 0 0 0 
1063 2 -9.73946 -17.0318 -9.57064 0 0 0 
481 1 3.5393 -11.4959 -9.7883 0 0 0 
482 1 3.67201 -11.1306 -8.90569 0 0 0 
228 1 6.45827 -11.6217 -9.05237 0 0 0 
229 1 5.76004 -11.3713 -9.7236 0 0 0 
651 1 -11.298 -10.6599 -9.37464 0 0 0 
828 1 -4.50787 -10.7454 -9.51134 0 0 0 
1248 2 4.42707 -10.7978 -9.83867 0 0 0 
810 1 -5.37963 -8.67156 -9.48099 0 0 0 
1020 2 3.95231 -7.80659 -9.77994 0 0 0 
496 1 8.24596 -8.67912 -9.30643 0 0 0 
1295 2 9.91561 -8.74937 -9.24657 0 0 0 
755 1 -12.8162 -7.17902 -9.88986 0 0 0 
807 1 -7.14019 -7.51556 -9.60611 0 0 0 
808 1 -6.32684 -7.23901 -9.13899 0 0 0 
809 1 -5.45691 -7.75659 -9.14677 0 0 0 
1134 2 5.5193 -7.49992 -9.84293 0 0 0 
756 1 -12.9471 -6.46399 -9.26481 0 0 0 
1218 2 -6.89572 -6.34515 -9.60421 0 0 0 
710 1 -5.36007 -6.35761 -9.56797 0 0 0 
749 1 -8.78344 -4.81121 -9.46704 0 0 0 
748 1 -7.90996 -5.03142 -9.58438 0 0 0 
747 1 -7.02209 -5.03037 -9.95599 0 0 0 
404 1 -5.98083 -4.83029 -9.18912 0 0 0 
801 1 -9.43584 -3.92008 -9.13562 0 0 0 
1269 2 -7.69094 -3.88045 -9.18838 0 0 0 
405 1 -6.64756 -4.17083 -9.32858 0 0 0 
1146 2 -5.71412 -3.6963 -9.05468 0 0 0 
1227 2 -7.6932 -2.68496 -9.84522 0 0 0 
1129 2 -6.6446 -3.22208 -9.75337 0 0 0 
742 1 -8.25363 -1.64633 -9.84516 0 0 0 
741 1 -7.71856 -1.37199 -9.10403 0 0 0 
687 1 -6.68003 -1.19867 -9.07226 0 0 0 
686 1 -5.96373 -1.58362 -9.5685 0 0 0 
290 1 12.1452 -1.94897 -9.4934 0 0 0 
1035 2 -9.43173 -0.713331 -9.28515 0 0 0 
784 1 -13.6891 0.561699 -9.05777 0 0 0 
785 1 -13.1484 0.32251 -9.78888 0 0 0 
413 1 -10.0661 0.189829 -9.00515 0 0 0 
414 1 -9.5467 0.551318 -9.73553 0 0 0 
735 1 -9.66746 1.92614 -9.45595 0 0 0 
1056 2 -8.66803 1.17557 -9.35223 0 0 0 
430 1 -1.64281 3.89964 -9.81819 0 0 0 
1236 2 -4.5563 5.4493 -8.99324 0 0 0 
431 1 -1.61514 4.76077 -9.36955 0 0 0 
532 1 10.8505 4.73836 -9.90617 0 0 0 
533 1 11.3752 4.9778 -9.09572 0 0 0 
432 1 -1.47878 5.57125 -8.90943 0 0 0 
433 1 -1.31399 6.5022 -9.08478 0 0 0 
1291 2 5.90835 6.38173 -9.00382 0 0 0 
434 1 -1.44228 7.42333 -9.25738 0 0 0 
1105 2 -3.97675 8.88691 -9.76724 0 0 0 
436 1 -2.51129 8.57857 -9.94845 0 0 0 
435 1 -1.855 8.3481 -9.23132 0 0 0 
308 1 3.1413 8.03308 -8.89726 0 0 0 
1162 2 -9.07544 9.4094 -9.06869 0 0 0 
1275 2 8.96478 9.54308 -9.55913 0 0 0 
1031 2 15.6916 10.3885 -9.4597 0 0 0 
38 1 -8.33052 13.4586 -9.56972 0 0 0 
1013 2 -1.90774 -15.4784 -8.34552 0 0 0 
1160 2 5.50327 -11.647 -7.92826 0 0 0 
227 1 6.87173 -11.7478 -8.15123 0 0 0 
650 1 -10.4917 -10.4415 -8.80027 0 0 0 
649 1 -9.99455 -10.0762 -8.10307 0 0 0 
829 1 -4.24034 -10.3911 -8.59938 0 0 0 
830 1 -3.85617 -10.1504 -7.80417 0 0 0 
483 1 3.69367 -10.7172 -7.99571 0 0 0 
226 1 7.17027 -10.8445 -7.83363 0 0 0 
648 1 -9.35612 -9.37032 -8.06122 0 0 0 
647 1 -8.43375 -9.50093 -7.79349 0 0 0 
495 1 8.00361 -8.19086 -8.50603 0 0 0 
806 1 -7.59522 -7.22108 -8.82718 0 0 0 
382 1 -3.36716 -7.37947 -7.87652 0 0 0 
494 1 7.59081 -7.73557 -7.79564 0 0 0 
757 1 -13.1613 -6.17736 -8.38951 0 0 0 
758 1 -12.2549 -5.90724 -8.23943 0 0 0 
1001 2 -10.9247 -6.13882 -8.77959 0 0 0 
804 1 -8.16553 -5.56025 -8.66566 0 0 0 
805 1 -8.2719 -6.56944 -8.73182 0 0 0 
709 1 -5.09617 -6.19721 -8.63197 0 0 0 
383 1 -3.52209 -6.38547 -8.09711 0 0 0 
759 1 -11.6451 -5.18691 -7.94241 0 0 0 
1021 2 -10.6829 -4.6193 -8.37781 0 0 0 
803 1 -8.40696 -4.6712 -8.35357 0 0 0 
1049 2 -7.15783 -4.70628 -8.63926 0 0 0 
1097 2 -6.2278 -5.50897 -8.12198 0 0 0 
403 1 -5.15422 -4.66071 -8.67416 0 0 0 
384 1 -3.5781 -5.41009 -8.01085 0 0 0 
385 1 -4.27944 -4.74023 -7.83258 0 0 0 
1123 2 -10.112 -3.72524 -7.98947 0 0 0 
802 1 -9.29947 -4.33669 -8.27873 0 0 0 
1205 2 -8.54491 -3.43573 -8.37025 0 0 0 
406 1 -6.66799 -3.4805 -8.68883 0 0 0 
407 1 -7.42518 -3.45552 -8.20222 0 0 0 
1185 2 -6.12418 -4.41299 -8.07032 0 0 0 
402 1 -4.84991 -3.7654 -8.49357 0 0 0 
1271 2 -9.22526 -2.71269 -8.41654 0 0 0 
1250 2 -7.76489 -2.60559 -8.87309 0 0 0 
401 1 -4.40887 -2.90423 -8.29851 0 0 0 
1150 2 -8.85051 -1.65241 -8.80087 0 0 0 
409 1 -8.31176 -1.86709 -7.80935 0 0 0 
1002 2 -7.21084 -1.65148 -8.21723 0 0 0 
1294 2 -6.20443 -1.7935 -7.87415 0 0 0 
292 1 10.8635 -1.57784 -8.1427 0 0 0 
291 1 11.4728 -1.78766 -8.84457 0 0 0 
412 1 -10.3074 -0.24362 -8.184 0 0 0 
411 1 -9.88303 -0.971927 -7.82968 0 0 0 
740 1 -7.84001 -0.65154 -8.42036 0 0 0 
688 1 -6.8223 -0.473058 -8.41477 0 0 0 
1217 2 -5.84932 -0.905237 -8.2042 0 0 0 
294 1 9.37679 -0.648663 -7.98636 0 0 0 
783 1 -13.7188 0.749773 -8.07005 0 0 0 
1032 2 -9.27877 0.855757 -8.41152 0 0 0 
738 1 -8.26127 0.600987 -8.26398 0 0 0 
739 1 -7.4962 0.154419 -7.96934 0 0 0 
298 1 6.28325 1.10982 -8.46545 0 0 0 
297 1 7.20084 0.985307 -8.15815 0 0 0 
296 1 8.1731 0.779194 -8.14791 0 0 0 
295 1 8.89746 0.213501 -8.04097 0 0 0 
736 1 -9.09237 1.82874 -8.63992 0 0 0 
737 1 -8.29294 1.59405 -8.21046 0 0 0 
300 1 4.64165 1.68245 -7.95033 0 0 0 
299 1 5.5913 1.67391 -8.06864 0 0 0 
1238 2 10.8083 2.05145 -7.95654 0 0 0 
302 1 3.38647 2.8425 -7.9346 0 0 0 
301 1 4.18724 2.49333 -8.04617 0 0 0 
1254 2 5.26052 2.59076 -8.61533 0 0 0 
1201 2 0.440258 3.86948 -8.70721 0 0 0 
303 1 3.21647 3.774 -7.82883 0 0 0 
1189 2 1.67642 4.70674 -8.34344 0 0 0 
304 1 2.94706 4.75728 -7.82568 0 0 0 
305 1 3.13947 5.46872 -8.42516 0 0 0 
306 1 3.57378 6.31985 -8.13877 0 0 0 
534 1 10.9414 5.73385 -8.6457 0 0 0 
535 1 10.212 5.78249 -7.97963 0 0 0 
307 1 3.5761 7.29158 -8.41531 0 0 0 
309 1 2.66207 8.86804 -8.70961 0 0 0 
310 1 2.94716 9.71842 -8.36908 0 0 0 
1100 2 2.56411 10.8542 -8.18013 0 0 0 
39 1 -8.08601 12.88 -8.78471 0 0 0 
40 1 -8.45858 12.9289 -7.89023 0 0 0 
1080 2 7.57368 13.3272 -8.29699 0 0 0 
1164 2 -6.835 -17.4933 -7.15676 0 0 0 
1255 2 -2.92443 -17.0327 -7.46927 0 0 0 
1155 2 -7.69186 -14.1559 -7.33074 0 0 0 
831 1 -4.14109 -10.0036 -6.82825 0 0 0 
484 1 3.50776 -10.1435 -7.27331 0 0 0 
646 1 -7.66059 -9.49532 -7.2263 0 0 0 
380 1 -3.12698 -8.96805 -6.87218 0 0 0 
485 1 3.03314 -9.35064 -6.83692 0 0 0 
225 1 7.4659 -9.92764 -7.41926 0 0 0 
381 1 -3.36562 -8.13943 -7.24707 0 0 0 
1198 2 -6.48295 -6.98715 -7.14956 0 0 0 
493 1 6.92297 -7.21969 -7.30551 0 0 0 
1005 2 -7.42575 -6.53987 -6.87233 0 0 0 
707 1 -5.6669 -6.03699 -6.78619 0 0 0 
708 1 -5.23047 -6.39059 -7.63606 0 0 0 
492 1 6.3955 -6.39556 -7.10753 0 0 0 
760 1 -11.2055 -4.95861 -7.09134 0 0 0 
1083 2 -6.85568 -5.36062 -6.83564 0 0 0 
1194 2 -5.87187 -4.93975 -7.07811 0 0 0 
1143 2 -8.21745 -3.86528 -7.42742 0 0 0 
1122 2 -7.22913 -3.91878 -6.93941 0 0 0 
387 1 -5.67077 -3.8974 -6.99064 0 0 0 
386 1 -4.81313 -4.17036 -7.26246 0 0 0 
408 1 -8.04607 -2.80662 -7.70905 0 0 0 
1216 2 -6.93113 -2.68234 -7.54814 0 0 0 
388 1 -6.30971 -3.08256 -6.77441 0 0 0 
862 1 -11.5922 -1.41073 -6.83175 0 0 0 
863 1 -10.7779 -1.86123 -6.73387 0 0 0 
1296 2 -9.21555 -1.15026 -6.75955 0 0 0 
1283 2 -6.98222 -1.19917 -7.26965 0 0 0 
389 1 -6.62438 -2.07569 -6.71456 0 0 0 
351 1 -4.94966 -1.69556 -7.24305 0 0 0 
400 1 -4.10682 -2.16173 -7.7595 0 0 0 
398 1 -3.55916 -1.16588 -6.91062 0 0 0 
399 1 -3.29188 -2.06082 -7.2498 0 0 0 
293 1 10.0102 -1.33736 -7.71044 0 0 0 
861 1 -12.1659 -0.723886 -7.08775 0 0 0 
1068 2 -8.03762 -0.624371 -7.30702 0 0 0 
410 1 -8.87999 -1.02209 -7.77482 0 0 0 
1084 2 -6.00727 -1.00523 -6.98144 0 0 0 
689 1 -6.48785 -0.225491 -7.49682 0 0 0 
350 1 -5.05305 -0.715325 -7.43574 0 0 0 
397 1 -3.76441 -0.252785 -7.18243 0 0 0 
860 1 -12.2266 0.153794 -7.38391 0 0 0 
1234 2 -6.83681 0.871415 -6.91146 0 0 0 
1023 2 -7.74054 0.466854 -6.89796 0 0 0 
348 1 -5.66078 1.04461 -6.97803 0 0 0 
349 1 -5.43545 0.207666 -7.26471 0 0 0 
396 1 -4.18132 0.534159 -6.84965 0 0 0 
782 1 -13.4181 1.2922 -7.39194 0 0 0 
781 1 -12.9054 2.06727 -7.17751 0 0 0 
1045 2 -7.45735 1.79424 -7.34189 0 0 0 
347 1 -6.21525 1.79034 -6.73097 0 0 0 
900 1 -0.675802 3.8015 -7.42452 0 0 0 
899 1 0.209934 3.4845 -7.72932 0 0 0 
898 1 1.08312 3.8573 -7.56161 0 0 0 
901 1 -1.4228 4.46124 -7.39728 0 0 0 
902 1 -1.63503 5.3676 -7.46937 0 0 0 
897 1 1.21711 4.72477 -7.25693 0 0 0 
896 1 1.54726 5.44216 -6.72563 0 0 0 
536 1 9.77451 5.26259 -7.22996 0 0 0 
1095 2 12.1385 4.70439 -7.06305 0 0 0 
903 1 -2.27868 6.0111 -7.04739 0 0 0 
1209 2 0.181175 9.90575 -6.93317 0 0 0 
311 1 3.32491 10.2378 -7.6801 0 0 0 
312 1 2.51755 10.2771 -7.10869 0 0 0 
41 1 -8.11205 13.3066 -7.03127 0 0 0 
1046 2 1.61922 13.5828 -7.57589 0 0 0 
644 1 -7.37707 -10.3939 -5.6059 0 0 0 
645 1 -7.301 -9.93348 -6.43136 0 0 0 
832 1 -4.46878 -9.70654 -5.97325 0 0 0 
379 1 -2.97947 -9.8437 -6.36521 0 0 0 
378 1 -2.24311 -9.59981 -5.69404 0 0 0 
224 1 7.26692 -9.36731 -6.64889 0 0 0 
223 1 7.927 -9.13725 -5.9436 0 0 0 
486 1 3.28839 -8.51155 -6.35421 0 0 0 
845 1 -6.92339 -6.9052 -5.9161 0 0 0 
487 1 3.63285 -7.64913 -5.99474 0 0 0 
1220 2 -13.3884 -6.6031 -5.95078 0 0 0 
846 1 -6.93481 -6.00172 -5.9779 0 0 0 
706 1 -5.1363 -5.66987 -5.97816 0 0 0 
491 1 6.13357 -5.68227 -6.50947 0 0 0 
490 1 5.56946 -6.07775 -5.75446 0 0 0 
761 1 -10.466 -5.0706 -6.46093 0 0 0 
762 1 -10.0439 -4.73021 -5.71984 0 0 0 
847 1 -6.9966 -5.07695 -5.8173 0 0 0 
848 1 -7.56991 -4.30148 -5.61858 0 0 0 
1115 2 -6.45146 -4.12373 -6.18996 0 0 0 
1172 2 -5.59718 -3.52023 -5.81105 0 0 0 
1152 2 -4.77284 -4.35974 -6.16791 0 0 0 
864 1 -9.88883 -2.22273 -6.51527 0 0 0 
865 1 -8.97436 -2.32504 -6.45358 0 0 0 
866 1 -7.99496 -2.48886 -6.54481 0 0 0 
867 1 -7.22321 -2.98702 -6.32895 0 0 0 
868 1 -6.74066 -3.30922 -5.59576 0 0 0 
352 1 -4.98039 -2.50231 -6.63974 0 0 0 
353 1 -5.08822 -2.59665 -5.7439 0 0 0 
1018 2 -8.02066 -1.41876 -6.59814 0 0 0 
390 1 -6.17059 -1.56139 -5.94783 0 0 0 
1266 2 -5.00783 -1.51254 -6.06445 0 0 0 
1213 2 -8.44599 -0.146846 -6.34263 0 0 0 
691 1 -7.34367 -0.272038 -5.79757 0 0 0 
690 1 -6.86095 -0.177605 -6.62702 0 0 0 
391 1 -5.79982 -0.693973 -5.77595 0 0 0 
1176 2 -4.59803 -0.469928 -6.54751 0 0 0 
859 1 -12.401 0.598382 -6.45628 0 0 0 
858 1 -12.5157 0.0695716 -5.56316 0 0 0 
394 1 -5.53254 1.07423 -5.61036 0 0 0 
395 1 -4.70383 0.777499 -6.03937 0 0 0 
1241 2 -6.56892 1.42411 -5.75375 0 0 0 
780 1 -12.6554 2.56676 -6.3131 0 0 0 
1231 2 -8.29136 3.21901 -5.59704 0 0 0 
346 1 -6.52853 2.47142 -6.09426 0 0 0 
538 1 9.65379 4.16298 -5.68822 0 0 0 
537 1 9.81927 4.70913 -6.44603 0 0 0 
904 1 -2.05398 5.6087 -6.20875 0 0 0 
895 1 1.45772 5.94371 -5.86567 0 0 0 
1042 2 -15.8788 9.45361 -6.00151 0 0 0 
313 1 2.83219 9.92315 -6.29521 0 0 0 
1038 2 2.14292 11.0368 -6.46238 0 0 0 
1003 2 -4.33291 11.2808 -6.57461 0 0 0 
42 1 -8.16211 13.3189 -6.05561 0 0 0 
1131 2 13.9468 12.5767 -6.0097 0 0 0 
1245 2 -17.1272 13.8734 -6.45833 0 0 0 
1196 2 12.9785 -13.5586 -4.55523 0 0 0 
1178 2 3.00978 -11.1233 -4.79797 0 0 0 
643 1 -7.61498 -11.0498 -4.91272 0 0 0 
833 1 -4.65858 -9.12393 -5.19671 0 0 0 
222 1 7.99465 -9.11239 -4.99321 0 0 0 
843 1 -7.72563 -7.97423 -4.96879 0 0 0 
377 1 -2.27952 -8.67013 -5.29901 0 0 0 
376 1 -1.73203 -7.91568 -5.12638 0 0 0 
844 1 -6.94974 -7.72852 -5.44858 0 0 0 
488 1 4.1845 -7.00542 -5.52622 0 0 0 
220 1 7.9325 -7.61973 -4.51511 0 0 0 
489 1 4.63707 -6.20279 -5.3852 0 0 0 
763 1 -9.7073 -4.50803 -4.85271 0 0 0 
870 1 -6.10441 -4.84862 -4.78669 0 0 0 
705 1 -5.1025 -5.06846 -5.19035 0 0 0 
849 1 -7.92871 -3.56156 -5.10352 0 0 0 
869 1 -6.31446 -3.96679 -5.07351 0 0 0 
704 1 -4.38842 -4.40331 -5.10681 0 0 0 
703 1 -3.50217 -4.09322 -5.42811 0 0 0 
702 1 -3.51402 -3.52582 -4.65808 0 0 0 
850 1 -7.99138 -2.60005 -5.03331 0 0 0 
354 1 -5.78284 -2.22352 -5.02032 0 0 0 
355 1 -6.5489 -2.08387 -4.49517 0 0 0 
857 1 -12.7202 -0.333412 -4.67551 0 0 0 
547 1 10.5876 -0.188316 -4.59787 0 0 0 
692 1 -8.02558 0.328324 -5.45035 0 0 0 
693 1 -8.39029 0.774314 -4.64412 0 0 0 
392 1 -5.75686 0.0520051 -5.22919 0 0 0 
393 1 -6.21167 0.812474 -4.93396 0 0 0 
548 1 10.9077 0.683818 -4.86601 0 0 0 
541 1 9.25786 1.78484 -5.03042 0 0 0 
549 1 10.6327 1.62616 -5.00439 0 0 0 
779 1 -12.3178 2.91911 -5.45696 0 0 0 
778 1 -11.9623 2.38273 -4.68796 0 0 0 
345 1 -7.10202 2.87912 -5.48073 0 0 0 
344 1 -7.62465 3.0747 -4.68499 0 0 0 
540 1 9.23854 2.70253 -5.02619 0 0 0 
550 1 10.2464 2.40873 -4.56466 0 0 0 
343 1 -8.13171 3.89513 -4.54977 0 0 0 
906 1 -1.91135 4.25122 -4.68837 0 0 0 
539 1 9.51648 3.65418 -4.85777 0 0 0 
341 1 -9.20546 5.47757 -4.73702 0 0 0 
905 1 -1.75975 4.97324 -5.43192 0 0 0 
894 1 1.00108 6.47966 -5.23356 0 0 0 
1247 2 11.4477 6.39628 -4.52713 0 0 0 
892 1 -0.648621 7.48348 -4.61933 0 0 0 
893 1 0.197429 7.02906 -4.94893 0 0 0 
1270 2 1.37257 9.19426 -4.97108 0 0 0 
314 1 3.36426 9.95409 -5.47577 0 0 0 
315 1 3.09304 10.0144 -4.5477 0 0 0 
43 1 -8.27454 12.9604 -5.12999 0 0 0 
1261 2 7.44683 -15.1335 -3.37289 0 0 0 
641 1 -8.96326 -11.1819 -3.69488 0 0 0 
642 1 -8.31627 -11.331 -4.39618 0 0 0 
835 1 -5.68911 -9.40485 -3.971 0 0 0 
834 1 -4.8741 -8.99762 -4.29544 0 0 0 
1099 2 -7.59429 -8.63235 -4.01215 0 0 0 
374 1 -1.4925 -7.88527 -3.52538 0 0 0 
221 1 8.34785 -8.5112 -4.29074 0 0 0 
842 1 -7.82866 -7.65158 -4.03039 0 0 0 
1264 2 -4.21776 -7.22969 -4.04229 0 0 0 
375 1 -1.41171 -7.47569 -4.35887 0 0 0 
211 1 1.78317 -6.74529 -3.34211 0 0 0 
219 1 7.36109 -7.04271 -3.95931 0 0 0 
1065 2 16.1484 -6.81314 -3.94286 0 0 0 
218 1 6.73573 -6.61145 -3.34645 0 0 0 
764 1 -9.80115 -4.83095 -4.00765 0 0 0 
871 1 -5.7941 -5.27547 -3.93452 0 0 0 
1081 2 -5.18977 -4.48095 -4.31531 0 0 0 
1077 2 -4.83338 -3.82132 -3.38574 0 0 0 
356 1 -6.47768 -2.60231 -3.69519 0 0 0 
700 1 -4.8155 -2.55404 -3.5483 0 0 0 
701 1 -4.20235 -3.0792 -4.07772 0 0 0 
1192 2 -10.4346 -1.53344 -4.23363 0 0 0 
852 1 -8.92947 -1.63776 -4.15912 0 0 0 
853 1 -9.75061 -1.70927 -3.54174 0 0 0 
851 1 -7.99377 -2.01289 -4.29508 0 0 0 
1022 2 -5.53965 -1.92782 -4.04652 0 0 0 
856 1 -12.0397 -0.764621 -4.08901 0 0 0 
855 1 -11.2595 -1.05424 -3.68498 0 0 0 
1221 2 -5.77084 -0.828723 -4.36733 0 0 0 
546 1 10.273 -0.992153 -4.03378 0 0 0 
1104 2 -11.9132 0.065503 -3.35133 0 0 0 
1298 2 -6.89907 0.955384 -4.06644 0 0 0 
543 1 9.12855 0.450517 -3.74613 0 0 0 
777 1 -11.7701 1.6844 -3.97873 0 0 0 
694 1 -8.06535 1.29985 -3.77933 0 0 0 
542 1 8.75208 1.14406 -4.38217 0 0 0 
551 1 10.3242 3.18434 -4.06586 0 0 0 
907 1 -2.07115 3.82665 -3.87322 0 0 0 
552 1 10.3596 4.02458 -3.46611 0 0 0 
342 1 -8.66945 4.79091 -4.43624 0 0 0 
1033 2 7.96128 5.5552 -4.11146 0 0 0 
1187 2 -15.1544 5.96025 -3.8507 0 0 0 
340 1 -9.91011 5.78233 -4.16297 0 0 0 
339 1 -9.87322 6.54034 -3.52196 0 0 0 
891 1 -1.22804 7.73128 -3.81129 0 0 0 
317 1 1.63608 10.2891 -3.4677 0 0 0 
316 1 2.51372 10.0785 -3.84234 0 0 0 
1256 2 14.4743 11.8645 -3.62514 0 0 0 
1197 2 16.7415 11.1703 -3.50526 0 0 0 
44 1 -8.56426 12.8157 -4.20817 0 0 0 
45 1 -8.1484 12.4865 -3.43687 0 0 0 
640 1 -9.01209 -11.3601 -2.78611 0 0 0 
836 1 -6.12615 -9.62083 -3.07096 0 0 0 
373 1 -1.3696 -7.96742 -2.56902 0 0 0 
841 1 -7.41334 -7.76238 -3.01586 0 0 0 
210 1 2.05025 -7.08428 -2.44405 0 0 0 
766 1 -9.32225 -5.59512 -2.3045 0 0 0 
1204 2 -6.46882 -5.85832 -2.66396 0 0 0 
212 1 1.99381 -5.92605 -2.77755 0 0 0 
217 1 5.93729 -5.98975 -3.21345 0 0 0 
765 1 -9.38216 -5.17563 -3.18624 0 0 0 
872 1 -5.76188 -5.03377 -3.02643 0 0 0 
213 1 2.51006 -5.16829 -2.55024 0 0 0 
214 1 3.44047 -4.95655 -2.83234 0 0 0 
215 1 4.38761 -5.18021 -2.77857 0 0 0 
216 1 5.30791 -5.21917 -3.06601 0 0 0 
358 1 -7.39193 -3.80774 -2.8149 0 0 0 
873 1 -5.53371 -4.33325 -2.42996 0 0 0 
357 1 -6.89341 -3.03631 -2.96014 0 0 0 
1258 2 12.0083 -3.0294 -3.13979 0 0 0 