ITEM: TIMESTEP
10000000
ITEM: NUMBER OF ATOMS
1548
ITEM: BOX BOUNDS pp pp pp
-3.0000000000000000e+01 3.0000000000000000e+01
-3.0000000000000000e+01 3.0000000000000000e+01
-3.0000000000000000e+01 3.0000000000000000e+01
ITEM: ATOMS id type x y z ix iy iz 
1360 2 2.65246 -6.88301 -18.1014 0 0 0 
1217 2 6.49411 -13.7827 -16.7061 0 0 0 
1532 2 1.87358 -8.83779 -16.7594 0 0 0 
1225 2 16.2904 15.9562 -16.998 0 0 0 
756 1 1.88665 -8.23361 -15.654 0 0 0 
755 1 2.70268 -8.78507 -15.725 0 0 0 
1334 2 -2.00306 2.4623 -16.0962 0 0 0 
99 1 11.8807 7.56369 -16.3001 0 0 0 
98 1 12.5338 7.10464 -15.6936 0 0 0 
100 1 10.9628 7.9685 -16.3305 0 0 0 
949 1 -5.21967 12.0529 -15.6721 0 0 0 
948 1 -4.25063 12.2334 -15.8785 0 0 0 
947 1 -3.3918 12.5721 -15.841 0 0 0 
946 1 -2.5206 13.087 -15.9463 0 0 0 
1284 2 8.83873 -12.5523 -14.6098 0 0 0 
753 1 3.60885 -10.3578 -15.0659 0 0 0 
754 1 3.20762 -9.58133 -15.4691 0 0 0 
757 1 0.931841 -8.11087 -15.5172 0 0 0 
758 1 0.902733 -8.44048 -14.5899 0 0 0 
550 1 11.5887 -3.42986 -15.2007 0 0 0 
549 1 10.945 -2.73268 -15.4177 0 0 0 
548 1 11.2426 -1.80998 -15.3815 0 0 0 
547 1 11.7268 -1.12874 -14.8313 0 0 0 
1178 2 6.9 0.472235 -14.578 0 0 0 
119 1 8.26333 0.238239 -14.8367 0 0 0 
117 1 9.90711 0.601573 -14.5619 0 0 0 
1341 2 7.87231 3.01664 -14.4584 0 0 0 
1335 2 0.729224 3.51874 -14.5892 0 0 0 
91 1 9.55476 5.10579 -14.5204 0 0 0 
97 1 13.1832 6.51687 -15.243 0 0 0 
1150 2 2.24237 7.73309 -14.5954 0 0 0 
102 1 10.994 7.68831 -14.7334 0 0 0 
101 1 10.4568 7.97888 -15.5145 0 0 0 
1359 2 12.2203 7.85514 -14.9238 0 0 0 
1025 2 -3.29675 10.0333 -14.7982 0 0 0 
950 1 -5.56117 11.7612 -14.8245 0 0 0 
945 1 -1.72964 13.5825 -15.4946 0 0 0 
944 1 -1.31209 14.0625 -14.7338 0 0 0 
752 1 3.05232 -10.4658 -14.2892 0 0 0 
751 1 2.67987 -10.3226 -13.4555 0 0 0 
759 1 0.480798 -8.47943 -13.6778 0 0 0 
1476 2 -0.229813 -7.43582 -13.9133 0 0 0 
1162 2 -9.3241 -6.05771 -13.996 0 0 0 
552 1 10.975 -4.11588 -13.7869 0 0 0 
551 1 11.6408 -4.02807 -14.4295 0 0 0 
1536 2 11.7017 -2.69024 -14.3985 0 0 0 
121 1 7.54459 -1.21145 -13.8335 0 0 0 
1361 2 -0.296191 -0.910183 -13.4754 0 0 0 
1446 2 0.648274 -1.02274 -14.141 0 0 0 
120 1 8.04199 -0.602986 -14.4399 0 0 0 
546 1 11.4868 -0.825018 -13.9245 0 0 0 
1417 2 8.59272 0.0585077 -13.643 0 0 0 
118 1 8.92016 0.778001 -14.4291 0 0 0 
86 1 9.48902 0.802539 -13.4667 0 0 0 
116 1 10.6616 0.974344 -14.1637 0 0 0 
886 1 -3.29191 2.03273 -13.6657 0 0 0 
87 1 9.0858 1.62643 -13.773 0 0 0 
115 1 11.6249 1.23031 -14.1115 0 0 0 
114 1 12.2972 1.91815 -14.1182 0 0 0 
885 1 -3.2169 2.68489 -14.3792 0 0 0 
884 1 -2.2352 2.89261 -14.4327 0 0 0 
88 1 8.88044 2.56107 -13.559 0 0 0 
113 1 12.5903 2.73633 -13.7783 0 0 0 
883 1 -1.79344 3.71072 -13.9932 0 0 0 
90 1 9.10078 4.34153 -14.4275 0 0 0 
89 1 8.96991 3.42039 -14.0728 0 0 0 
112 1 13.4023 3.43801 -13.6403 0 0 0 
111 1 14.3585 3.74758 -13.6242 0 0 0 
110 1 15.2215 4.12819 -13.5016 0 0 0 
1454 2 5.83764 4.77225 -14.3568 0 0 0 
109 1 15.5358 4.98168 -13.7316 0 0 0 
92 1 10.3877 5.6389 -14.36 0 0 0 
94 1 11.9154 6.08685 -13.3777 0 0 0 
93 1 11.2254 5.65528 -13.8466 0 0 0 
95 1 12.8511 5.97271 -13.8015 0 0 0 
96 1 13.4819 6.33306 -14.3885 0 0 0 
108 1 15.2303 5.92354 -13.7149 0 0 0 
1045 2 12.0766 6.84235 -14.2063 0 0 0 
106 1 14.0271 7.336 -13.8814 0 0 0 
107 1 14.831 6.78089 -13.8326 0 0 0 
103 1 11.5142 7.93452 -13.9195 0 0 0 
104 1 12.4368 7.9676 -13.7977 0 0 0 
105 1 13.3658 8.01842 -13.9356 0 0 0 
952 1 -4.88887 10.5724 -13.3862 0 0 0 
951 1 -5.06413 11.3222 -14.1026 0 0 0 
943 1 -0.539258 14.2836 -14.0995 0 0 0 
1113 2 8.2531 14.1215 -14.3819 0 0 0 
1062 2 9.35907 16.9008 -14.4143 0 0 0 
750 1 2.23662 -10.1701 -12.6194 0 0 0 
749 1 1.87985 -9.35528 -12.2359 0 0 0 
760 1 -0.132366 -8.40456 -12.9987 0 0 0 
761 1 -0.714477 -8.56141 -12.2464 0 0 0 
326 1 5.57174 -8.04141 -12.4391 0 0 0 
325 1 4.88343 -7.34603 -12.3001 0 0 0 
1512 2 -4.88556 -5.84909 -12.3421 0 0 0 
553 1 10.6172 -4.59196 -12.9551 0 0 0 
540 1 11.6081 -4.63734 -12.7682 0 0 0 
691 1 -7.10951 -3.74443 -12.5039 0 0 0 
690 1 -6.28509 -4.22852 -12.251 0 0 0 
688 1 -4.67972 -4.11599 -12.4149 0 0 0 
541 1 11.7937 -3.82091 -13.2917 0 0 0 
436 1 15.4235 -4.1166 -12.3942 0 0 0 
437 1 16.3138 -3.77012 -12.5575 0 0 0 
542 1 12.0696 -3.21863 -12.65 0 0 0 
543 1 12.5732 -2.35481 -12.2571 0 0 0 
695 1 -6.79193 -1.83849 -12.7346 0 0 0 
696 1 -6.04404 -1.19275 -12.6084 0 0 0 
122 1 6.89705 -1.16419 -13.0778 0 0 0 
544 1 12.0281 -1.58838 -12.47 0 0 0 
697 1 -5.17173 -0.842653 -12.3449 0 0 0 
698 1 -4.46383 -0.060037 -12.2667 0 0 0 
702 1 -1.08949 -0.134211 -12.5438 0 0 0 
704 1 0.492305 -0.670594 -12.6424 0 0 0 
706 1 2.08966 -0.914562 -12.8662 0 0 0 
705 1 1.21762 -1.01449 -13.1971 0 0 0 
707 1 2.77589 -1.05537 -12.2424 0 0 0 
84 1 9.31384 -0.732844 -12.5009 0 0 0 
85 1 9.55627 -0.0659732 -13.1194 0 0 0 
545 1 11.5865 -0.900136 -12.9653 0 0 0 
699 1 -3.59436 0.112381 -12.8009 0 0 0 
700 1 -2.77856 0.143556 -13.2387 0 0 0 
701 1 -1.77631 0.0268265 -13.2115 0 0 0 
887 1 -3.37133 2.19883 -12.7637 0 0 0 
1391 2 -12.6058 2.53233 -13.235 0 0 0 
882 1 -1.606 3.80818 -13.0051 0 0 0 
1196 2 15.0016 4.04884 -12.4211 0 0 0 
953 1 -4.97111 10.1561 -12.5143 0 0 0 
1337 2 -4.69097 14.3236 -12.7814 0 0 0 
942 1 -0.0151726 14.5766 -13.2767 0 0 0 
941 1 0.449723 14.7788 -12.4076 0 0 0 
1120 2 5.9248 -12.9712 -11.4943 0 0 0 
748 1 1.34297 -9.43741 -11.4364 0 0 0 
328 1 7.10174 -9.21576 -12.0975 0 0 0 
329 1 7.55505 -9.59856 -11.306 0 0 0 
1415 2 -2.59531 -7.96523 -11.4072 0 0 0 
762 1 -1.15882 -8.6292 -11.41 0 0 0 
763 1 -2.06829 -8.87695 -11.1621 0 0 0 
797 1 0.703912 -7.86652 -11.799 0 0 0 
1386 2 4.37848 -7.90617 -11.1976 0 0 0 
327 1 6.43594 -8.51188 -12.2081 0 0 0 
1506 2 7.01587 -7.82475 -11.4295 0 0 0 
1163 2 8.00215 -8.24258 -11.1801 0 0 0 
1024 2 -3.08938 -7.26336 -12.0989 0 0 0 
796 1 1.45682 -7.19424 -11.7137 0 0 0 
323 1 3.61941 -7.01163 -11.2562 0 0 0 
324 1 3.90103 -7.42278 -12.1673 0 0 0 
1273 2 5.80905 -7.45778 -11.3736 0 0 0 
717 1 8.2455 -6.89287 -11.1207 0 0 0 
718 1 8.86434 -7.61971 -11.1164 0 0 0 
795 1 1.85797 -6.4614 -11.2278 0 0 0 
794 1 2.59107 -5.83316 -11.1396 0 0 0 
792 1 4.2394 -5.77615 -11.3226 0 0 0 
713 1 5.44266 -5.71119 -11.5159 0 0 0 
714 1 6.37099 -5.59709 -11.7871 0 0 0 
715 1 7.36131 -5.81161 -11.6552 0 0 0 
716 1 8.23299 -5.9542 -11.2976 0 0 0 
689 1 -5.43459 -4.73551 -12.2192 0 0 0 
793 1 3.34319 -5.35018 -11.2119 0 0 0 
712 1 4.9741 -4.84166 -11.6458 0 0 0 
556 1 8.41362 -4.60067 -11.1848 0 0 0 
555 1 9.33993 -4.62877 -11.6061 0 0 0 
554 1 10.1555 -4.5876 -12.145 0 0 0 
539 1 11.3498 -4.48789 -11.8262 0 0 0 
692 1 -7.72599 -3.42338 -11.8688 0 0 0 
687 1 -3.78727 -3.8804 -12.0403 0 0 0 
686 1 -3.24687 -3.35864 -11.4099 0 0 0 
710 1 3.90284 -3.36868 -11.3536 0 0 0 
711 1 4.74588 -3.90857 -11.5974 0 0 0 
785 1 6.78084 -4.06515 -11.2366 0 0 0 
435 1 14.5052 -3.81847 -12.1202 0 0 0 
1302 2 16.0937 -4.15208 -11.2511 0 0 0 
438 1 17.2175 -3.54038 -12.1155 0 0 0 
693 1 -8.29502 -2.60611 -11.9076 0 0 0 
694 1 -7.42296 -2.23289 -12.1254 0 0 0 
685 1 -2.62421 -2.57306 -11.3456 0 0 0 
709 1 3.37816 -2.54865 -11.2205 0 0 0 
433 1 13.4891 -2.39064 -11.5301 0 0 0 
434 1 14.2638 -3.01526 -11.7071 0 0 0 
439 1 17.9838 -3.00283 -11.7462 0 0 0 
440 1 18.7178 -2.63379 -11.1874 0 0 0 
683 1 -1.30619 -1.77982 -11.1908 0 0 0 
708 1 3.2322 -1.62658 -11.5261 0 0 0 
123 1 6.59074 -1.23373 -12.1167 0 0 0 
703 1 -0.310922 -0.508719 -12.1747 0 0 0 
124 1 6.49525 -0.830458 -11.206 0 0 0 
83 1 9.80048 -0.654781 -11.577 0 0 0 
1413 2 11.9249 -0.674994 -11.771 0 0 0 
1543 2 17.3102 1.02579 -11.2839 0 0 0 
1027 2 -6.14586 1.18728 -11.5928 0 0 0 
888 1 -3.3186 2.2543 -11.8508 0 0 0 
881 1 -1.1824 3.78724 -12.1616 0 0 0 
880 1 -0.44869 3.63526 -11.4976 0 0 0 
1544 2 2.00322 7.69302 -11.8133 0 0 0 
954 1 -5.60623 10.3041 -11.8174 0 0 0 
1452 2 6.41673 11.9204 -11.5712 0 0 0 
1029 2 9.49984 12.2652 -11.8219 0 0 0 
940 1 0.952556 14.7994 -11.6066 0 0 0 
343 1 8.88142 -14.4569 -10.7666 0 0 0 
342 1 8.15121 -14.4323 -10.1479 0 0 0 
344 1 9.79716 -14.1247 -10.5885 0 0 0 
258 1 3.51441 -12.2986 -10.263 0 0 0 
345 1 9.83059 -13.1949 -10.2772 0 0 0 
259 1 3.91001 -11.412 -10.4334 0 0 0 
722 1 8.96973 -11.4104 -10.6811 0 0 0 
260 1 4.39588 -10.6324 -10.1292 0 0 0 
1436 2 8.01935 -10.7591 -10.9042 0 0 0 
721 1 9.19836 -10.4166 -10.6913 0 0 0 
764 1 -2.87097 -9.08413 -10.6611 0 0 0 
747 1 1.10408 -8.91787 -10.5838 0 0 0 
262 1 5.00359 -8.93086 -10.0417 0 0 0 
1282 2 6.86548 -9.4022 -10.0682 0 0 0 
330 1 7.86675 -9.76933 -10.4163 0 0 0 
720 1 9.4048 -9.44834 -10.9437 0 0 0 
1032 2 3.99383 -8.5815 -10.2597 0 0 0 
263 1 5.42411 -8.28345 -10.4964 0 0 0 
264 1 6.23496 -8.0681 -10.1244 0 0 0 
265 1 7.18111 -7.99029 -10.0716 0 0 0 
719 1 9.18443 -8.51151 -10.8839 0 0 0 
798 1 0.805511 -7.43449 -10.9505 0 0 0 
322 1 4.01612 -6.83873 -10.3861 0 0 0 
1390 2 4.83804 -7.40762 -10.3366 0 0 0 
1420 2 5.95232 -7.05906 -10.2306 0 0 0 
1459 2 7.04975 -6.98811 -10.611 0 0 0 
1310 2 3.33891 -6.03338 -10.2329 0 0 0 
1156 2 4.98276 -6.6237 -11.0724 0 0 0 
1264 2 5.66551 -5.63072 -10.4743 0 0 0 
1106 2 7.71713 -6.30065 -10.0277 0 0 0 
679 1 0.0902875 -4.85216 -10.2741 0 0 0 
791 1 4.17741 -5.54444 -10.4721 0 0 0 
1466 2 5.00439 -4.51011 -10.4555 0 0 0 
1527 2 5.96145 -4.83203 -11.0915 0 0 0 
1255 2 6.56196 -4.46246 -10.2562 0 0 0 
1183 2 6.94014 -5.36937 -10.767 0 0 0 
557 1 8.4864 -4.95168 -10.3123 0 0 0 
538 1 10.7818 -4.46216 -11.0617 0 0 0 
680 1 0.161026 -3.96531 -10.3101 0 0 0 
1040 2 4.00492 -3.55871 -10.0734 0 0 0 
1306 2 3.91968 -4.36268 -10.7454 0 0 0 
786 1 5.92639 -3.69861 -10.7483 0 0 0 
784 1 7.62992 -3.6606 -10.8556 0 0 0 
1389 2 8.62121 -3.72746 -10.036 0 0 0 
537 1 10.9761 -4.40947 -10.1037 0 0 0 
682 1 -1.06201 -2.66599 -10.8597 0 0 0 
681 1 -0.424015 -3.2198 -10.3666 0 0 0 
787 1 5.64299 -3.24696 -10.0095 0 0 0 
1026 2 6.78823 -2.89984 -10.255 0 0 0 
783 1 7.90931 -2.81609 -10.4222 0 0 0 
684 1 -2.21865 -1.91596 -10.7972 0 0 0 
432 1 12.9484 -1.74628 -10.9549 0 0 0 
443 1 17.1989 -1.17842 -10.0456 0 0 0 
441 1 18.751 -1.73639 -10.8488 0 0 0 
442 1 17.9954 -1.16883 -10.5282 0 0 0 
125 1 6.17615 -0.788451 -10.2887 0 0 0 
82 1 9.47661 -0.854678 -10.683 0 0 0 
431 1 12.3823 -1.08642 -10.5522 0 0 0 
1279 2 10.1815 0.0543704 -10.3524 0 0 0 
877 1 1.4216 1.87727 -10.5015 0 0 0 
891 1 -4.80847 3.05178 -10.0092 0 0 0 
890 1 -4.16486 2.54932 -10.6365 0 0 0 
889 1 -3.21748 2.4181 -10.9024 0 0 0 
879 1 0.0425689 3.11413 -10.849 0 0 0 
878 1 0.817261 2.52628 -10.7225 0 0 0 
955 1 -6.03643 9.81671 -11.0931 0 0 0 
956 1 -5.7708 9.51171 -10.1806 0 0 0 
1402 2 -2.95891 13.4097 -10.41 0 0 0 
939 1 1.6144 14.824 -10.8697 0 0 0 
938 1 2.3625 14.649 -10.2498 0 0 0 
339 1 9.0215 -15.0624 -8.9791 0 0 0 
1507 2 14.3009 -15.2025 -9.49205 0 0 0 
341 1 7.87988 -13.8302 -9.47419 0 0 0 
1482 2 9.29017 -14.2396 -9.71046 0 0 0 
257 1 3.34507 -12.3455 -9.23663 0 0 0 
1508 2 9.02354 -13.2063 -9.16238 0 0 0 
346 1 10.3927 -12.5762 -9.71345 0 0 0 
1231 2 3.03571 -11.1153 -9.8006 0 0 0 
1061 2 2.36072 -11.6946 -9.13237 0 0 0 
728 1 5.65802 -11.4143 -9.31969 0 0 0 
723 1 8.55794 -11.8056 -9.91232 0 0 0 
724 1 7.79309 -11.3538 -9.52152 0 0 0 
347 1 10.5673 -12.0058 -9.02102 0 0 0 
375 1 14.7587 -11.4491 -9.8897 0 0 0 
376 1 14.5338 -11.7597 -8.94965 0 0 0 
301 1 1.68433 -10.2772 -8.9113 0 0 0 
300 1 2.59402 -10.5081 -9.10192 0 0 0 
727 1 6.07594 -10.5057 -9.41168 0 0 0 
1065 2 7.48775 -10.3212 -9.63641 0 0 0 
332 1 8.37864 -10.4283 -8.90721 0 0 0 
374 1 15.2164 -10.5305 -9.76968 0 0 0 
746 1 1.36223 -8.99362 -9.69749 0 0 0 
1444 2 3.63611 -9.75409 -9.77017 0 0 0 
404 1 4.13852 -8.91004 -8.97376 0 0 0 
261 1 4.62101 -9.85868 -9.67388 0 0 0 
402 1 5.95921 -9.02833 -9.25766 0 0 0 
401 1 6.82018 -9.0075 -9.0314 0 0 0 
331 1 8.3021 -9.72399 -9.59741 0 0 0 
371 1 13.1852 -8.91856 -9.06072 0 0 0 
372 1 14.0435 -9.40402 -9.08768 0 0 0 
373 1 14.9886 -9.71066 -9.31326 0 0 0 
765 1 -3.36624 -8.61964 -9.99414 0 0 0 
766 1 -3.15558 -7.82643 -9.51148 0 0 0 
405 1 3.23146 -8.72315 -9.26277 0 0 0 
406 1 2.45794 -8.16337 -9.30638 0 0 0 
1018 2 4.43298 -7.94429 -9.50416 0 0 0 
1072 2 7.56613 -7.93502 -9.04155 0 0 0 
1313 2 8.26754 -8.50205 -9.98944 0 0 0 
767 1 -3.15855 -6.88708 -9.75185 0 0 0 
799 1 0.83275 -7.73233 -9.95803 0 0 0 
800 1 0.294804 -7.65258 -9.10995 0 0 0 
407 1 1.85458 -7.44959 -9.50215 0 0 0 
321 1 3.70409 -7.1406 -9.51453 0 0 0 
563 1 5.7248 -7.45561 -9.2735 0 0 0 
1445 2 6.91707 -7.14887 -9.50525 0 0 0 
266 1 7.93252 -7.44307 -9.91088 0 0 0 
267 1 8.57196 -6.93727 -9.47094 0 0 0 
768 1 -2.71861 -5.94638 -9.93901 0 0 0 
408 1 1.45392 -6.48147 -9.67127 0 0 0 
1205 2 2.32175 -5.73383 -9.73242 0 0 0 
1180 2 4.21882 -6.11223 -9.46405 0 0 0 
1329 2 5.11322 -6.41048 -9.98012 0 0 0 
1172 2 6.52109 -5.57457 -9.78567 0 0 0 
562 1 6.09832 -6.51314 -9.39299 0 0 0 
561 1 5.90914 -5.66271 -8.96506 0 0 0 
1003 2 7.22912 -6.05214 -8.92483 0 0 0 
1427 2 8.31582 -5.84027 -9.12461 0 0 0 
217 1 10.3479 -6.23266 -9.01508 0 0 0 
769 1 -2.2429 -5.22027 -9.54444 0 0 0 
678 1 0.333883 -5.34524 -9.4452 0 0 0 
409 1 1.32808 -5.51809 -9.93936 0 0 0 
410 1 1.8457 -4.65667 -9.81268 0 0 0 
1210 2 2.75064 -4.95365 -9.14809 0 0 0 
790 1 3.79501 -5.00509 -9.73614 0 0 0 
1539 2 4.83827 -5.27819 -9.73972 0 0 0 
1263 2 5.65219 -4.67797 -9.65497 0 0 0 
558 1 7.55811 -5.0608 -9.92677 0 0 0 
559 1 7.03158 -4.69277 -9.22953 0 0 0 
1521 2 8.64443 -4.78559 -9.15734 0 0 0 
215 1 9.82333 -4.61026 -9.54293 0 0 0 
216 1 9.88472 -5.396 -9.0234 0 0 0 
411 1 2.20466 -3.91722 -9.27179 0 0 0 
1438 2 3.29304 -3.93072 -9.29833 0 0 0 
789 1 4.42934 -4.42504 -9.3662 0 0 0 
788 1 4.97112 -3.55467 -9.37647 0 0 0 
1125 2 6.49322 -3.68954 -9.38822 0 0 0 
1397 2 7.57255 -3.55983 -9.60058 0 0 0 
214 1 9.55615 -3.78558 -9.20766 0 0 0 
536 1 11.6424 -3.87793 -9.59028 0 0 0 
413 1 2.90353 -2.29404 -8.89388 0 0 0 
1009 2 3.73095 -3.05292 -9.07227 0 0 0 
1012 2 4.7284 -2.3876 -9.29631 0 0 0 
781 1 6.87506 -2.32177 -9.09543 0 0 0 
782 1 7.67518 -2.28494 -9.62464 0 0 0 
1394 2 9.25456 -2.77379 -9.82571 0 0 0 
1531 2 2.5655 -1.22423 -9.0202 0 0 0 
414 1 3.61894 -1.7722 -9.25083 0 0 0 
1189 2 7.29328 -1.32632 -9.94279 0 0 0 
81 1 9.56127 -1.39751 -9.9061 0 0 0 
80 1 9.05697 -1.78644 -9.25091 0 0 0 
532 1 10.4785 -1.43635 -9.29383 0 0 0 
415 1 4.26513 -1.11028 -9.11628 0 0 0 
416 1 4.4923 -0.141419 -9.24842 0 0 0 
126 1 6.20131 -0.311936 -9.44496 0 0 0 
127 1 7.09762 -0.217133 -9.04879 0 0 0 
430 1 12.1213 -0.462829 -9.8137 0 0 0 
429 1 11.8749 -0.13365 -8.93177 0 0 0 
444 1 16.8082 -0.776302 -9.31823 0 0 0 
875 1 2.20075 0.39421 -9.51842 0 0 0 
417 1 4.64631 0.820524 -9.20665 0 0 0 
418 1 5.55804 0.950726 -9.25331 0 0 0 
1499 2 6.96355 1.0274 -9.55595 0 0 0 
876 1 1.71182 1.11269 -9.88941 0 0 0 
1362 2 0.055133 2.45766 -9.60443 0 0 0 
893 1 -6.24754 3.69319 -9.05961 0 0 0 
892 1 -5.41974 3.44886 -9.41309 0 0 0 
957 1 -5.20201 9.81933 -9.49537 0 0 0 
920 1 -4.06422 9.64924 -9.22014 0 0 0 
921 1 -3.18522 9.99992 -9.06316 0 0 0 
922 1 -2.12364 10.0887 -9.07911 0 0 0 
937 1 3.01114 14.9241 -9.61797 0 0 0 
338 1 9.26843 -14.9012 -8.05155 0 0 0 
340 1 8.47568 -14.2679 -8.82877 0 0 0 
256 1 3.01415 -12.2669 -8.31654 0 0 0 
335 1 8.45855 -13.1097 -8.16056 0 0 0 
303 1 1.89056 -12.008 -8.11691 0 0 0 
302 1 1.71619 -11.1309 -8.33978 0 0 0 
298 1 4.00675 -11.5546 -8.20175 0 0 0 
729 1 5.89794 -11.6503 -8.43562 0 0 0 
334 1 8.68825 -12.1834 -8.35591 0 0 0 
333 1 8.51489 -11.272 -8.40747 0 0 0 
1472 2 9.62488 -11.689 -8.64285 0 0 0 
348 1 10.601 -11.6124 -8.19254 0 0 0 
379 1 12.095 -11.7821 -7.78142 0 0 0 
378 1 12.7179 -12.0102 -8.47786 0 0 0 
377 1 13.6393 -11.9507 -8.63376 0 0 0 
364 1 15.693 -11.2844 -8.22762 0 0 0 
363 1 16.2321 -12.0937 -8.29923 0 0 0 
299 1 3.50387 -10.8938 -8.79792 0 0 0 
1119 2 5.23911 -11.0049 -8.02682 0 0 0 
1483 2 4.61923 -10.6722 -8.83931 0 0 0 
1414 2 5.58497 -10.1057 -8.35709 0 0 0 
726 1 6.71499 -10.262 -8.73249 0 0 0 
725 1 7.39516 -10.9081 -8.73916 0 0 0 
369 1 12.0772 -10.0172 -8.06705 0 0 0 
365 1 14.8992 -10.7073 -7.89136 0 0 0 
745 1 1.48701 -9.02466 -8.77545 0 0 0 
1522 2 2.56946 -9.52583 -8.58796 0 0 0 
1290 2 3.53752 -9.84038 -8.41624 0 0 0 
1369 2 4.65905 -9.89487 -7.81871 0 0 0 
1363 2 5.8195 -8.95311 -8.24369 0 0 0 
400 1 7.70336 -9.01903 -8.55436 0 0 0 
399 1 8.40164 -9.27093 -7.86196 0 0 0 
398 1 9.01142 -9.99667 -7.81577 0 0 0 
370 1 12.3733 -9.23266 -8.63576 0 0 0 
1169 2 13.3769 -9.88162 -8.23861 0 0 0 
1050 2 1.27889 -7.99436 -8.84593 0 0 0 
744 1 1.42043 -8.83176 -7.80306 0 0 0 
1418 2 3.22984 -7.87435 -8.36457 0 0 0 
1037 2 2.27564 -8.24021 -8.23833 0 0 0 
564 1 5.18409 -7.81051 -8.59635 0 0 0 
403 1 5.05708 -8.84856 -8.87501 0 0 0 
1285 2 4.45552 -8.50754 -8.07986 0 0 0 
1336 2 6.37076 -8.06567 -8.68639 0 0 0 
1144 2 -8.87111 -7.67729 -7.99617 0 0 0 
801 1 -0.35083 -7.66669 -8.35479 0 0 0 
1289 2 2.15773 -7.07602 -8.53111 0 0 0 
1103 2 1.18659 -6.90695 -8.73244 0 0 0 
1516 2 2.99956 -6.83871 -7.91523 0 0 0 
1529 2 4.1463 -7.27198 -8.37103 0 0 0 
1395 2 6.06011 -7.1719 -7.88321 0 0 0 
833 1 6.94237 -7.06881 -8.32422 0 0 0 
268 1 8.70348 -6.84191 -8.52253 0 0 0 
269 1 8.37606 -7.66471 -8.05796 0 0 0 
219 1 11.1524 -7.25619 -8.05567 0 0 0 
677 1 0.560581 -5.86373 -8.6483 0 0 0 
676 1 0.600946 -6.35364 -7.83964 0 0 0 
1301 2 1.64262 -6.15751 -7.94826 0 0 0 
319 1 2.67579 -6.02149 -8.61462 0 0 0 
320 1 3.34317 -6.597 -8.8269 0 0 0 
1496 2 3.81292 -5.77992 -8.03192 0 0 0 
1022 2 4.84376 -5.55805 -8.639 0 0 0 
1049 2 5.02891 -6.56474 -8.76504 0 0 0 
1131 2 5.74823 -6.05765 -8.02487 0 0 0 
834 1 6.90027 -6.13334 -7.91753 0 0 0 
1136 2 7.9944 -6.36779 -7.88369 0 0 0 
218 1 11.1902 -6.56104 -8.64689 0 0 0 
770 1 -1.82437 -4.89432 -8.75453 0 0 0 
771 1 -1.18422 -4.69486 -7.99908 0 0 0 
1111 2 1.75072 -5.50754 -8.79876 0 0 0 
775 1 2.10668 -4.49328 -8.46245 0 0 0 
774 1 1.18887 -4.68767 -8.06821 0 0 0 
318 1 2.86021 -5.20095 -8.02079 0 0 0 
667 1 5.45648 -4.7065 -7.78955 0 0 0 
560 1 6.1808 -4.779 -8.80652 0 0 0 
1440 2 7.82472 -4.9164 -8.23599 0 0 0 
1382 2 8.98751 -5.33938 -8.31436 0 0 0 
171 1 12.4683 -4.76988 -7.92705 0 0 0 
1203 2 2.20577 -3.56044 -7.90826 0 0 0 
776 1 3.01768 -4.17677 -8.22731 0 0 0 
777 1 3.90085 -3.85315 -8.40541 0 0 0 
1249 2 5.64715 -3.84376 -8.69961 0 0 0 
1057 2 6.64113 -3.97557 -7.87297 0 0 0 
1184 2 7.60003 -3.93025 -8.52889 0 0 0 
1327 2 9.93862 -4.03551 -7.85679 0 0 0 
213 1 8.91636 -3.81833 -8.50626 0 0 0 
535 1 11.6506 -3.55885 -8.71223 0 0 0 
173 1 13.8701 -3.67541 -8.05216 0 0 0 
1439 2 1.80804 -2.68354 -8.43316 0 0 0 
412 1 2.6798 -3.21919 -8.813 0 0 0 
1206 2 3.96444 -2.26949 -8.1427 0 0 0 
778 1 4.61078 -3.17566 -8.43564 0 0 0 
779 1 5.30788 -2.52896 -8.4134 0 0 0 
780 1 6.139 -2.87855 -8.77824 0 0 0 
1039 2 6.95444 -3.0351 -8.14719 0 0 0 
1167 2 8.10376 -2.82422 -8.16531 0 0 0 
1347 2 9.16492 -2.77749 -8.66865 0 0 0 
1372 2 10.7082 -3.14069 -8.25542 0 0 0 
534 1 11.7293 -2.65651 -8.85551 0 0 0 
1246 2 3.44521 -1.3716 -8.16948 0 0 0 
1457 2 4.74997 -1.48759 -8.18438 0 0 0 
1315 2 6.08117 -2.01192 -7.77847 0 0 0 
78 1 7.58755 -1.43784 -8.08139 0 0 0 
79 1 8.24598 -1.55331 -8.76608 0 0 0 
1108 2 8.95359 -2.12944 -7.87045 0 0 0 
531 1 9.93186 -1.87848 -8.62304 0 0 0 
530 1 9.87148 -1.36507 -7.83386 0 0 0 
533 1 11.3038 -1.78797 -8.77032 0 0 0 
1152 2 11.2068 -1.1556 -7.83563 0 0 0 
650 1 4.05216 -0.111423 -8.11351 0 0 0 
1321 2 6.661 -1.09764 -8.33602 0 0 0 
1355 2 5.59766 -0.872029 -8.37891 0 0 0 
128 1 8.03116 -0.171088 -8.86879 0 0 0 
1437 2 8.60172 -0.865063 -7.79525 0 0 0 
1036 2 9.22956 -0.596115 -8.65393 0 0 0 
446 1 15.4566 -0.576859 -7.88408 0 0 0 
445 1 16.0031 -0.533042 -8.71639 0 0 0 
874 1 2.34027 0.0411058 -8.6758 0 0 0 
873 1 2.96659 0.208203 -8.00829 0 0 0 
649 1 4.4908 0.784435 -8.03514 0 0 0 
419 1 6.4269 0.82966 -8.68948 0 0 0 
1377 2 7.47015 0.49584 -8.30117 0 0 0 
129 1 8.71361 0.37167 -8.3418 0 0 0 
428 1 11.34 0.0338955 -8.17594 0 0 0 
1187 2 7.25455 1.75922 -8.43812 0 0 0 
894 1 -7.00133 3.90706 -8.56062 0 0 0 
919 1 -4.58951 9.14944 -8.49988 0 0 0 
958 1 -4.93435 10.254 -8.6392 0 0 0 
959 1 -4.47582 10.182 -7.84025 0 0 0 
923 1 -1.71816 10.6873 -8.50277 0 0 0 
935 1 3.50434 13.8519 -8.2334 0 0 0 
936 1 3.10419 14.595 -8.7277 0 0 0 
1467 2 -8.5946 17.3305 -8.81979 0 0 0 
1538 2 -15.4611 -16.6666 -6.93265 0 0 0 
337 1 8.98958 -14.4502 -7.24726 0 0 0 
305 1 0.788678 -13.4048 -7.40959 0 0 0 
306 1 0.361162 -13.9808 -6.73785 0 0 0 
336 1 8.41899 -13.6648 -7.37537 0 0 0 
1547 2 10.0886 -13.4584 -7.06168 0 0 0 
304 1 1.38702 -12.6153 -7.53228 0 0 0 
255 1 3.32937 -12.7492 -7.55724 0 0 0 
254 1 3.73051 -13.0428 -6.77341 0 0 0 
385 1 7.10511 -12.7895 -6.9556 0 0 0 
384 1 8.06958 -12.7897 -6.82229 0 0 0 
383 1 8.75567 -12.241 -7.29829 0 0 0 
382 1 9.70164 -12.2361 -7.1771 0 0 0 
381 1 10.595 -12.4023 -6.91714 0 0 0 
380 1 11.564 -12.2654 -7.1403 0 0 0 
362 1 16.2899 -12.5661 -7.46796 0 0 0 
361 1 16.1121 -13.1109 -6.66764 0 0 0 
1240 2 2.49065 -11.9491 -7.26436 0 0 0 
311 1 3.74719 -11.2915 -6.78359 0 0 0 
297 1 4.5737 -11.7607 -7.48904 0 0 0 
296 1 5.14024 -11.7901 -6.6996 0 0 0 
730 1 6.59478 -11.5043 -7.77579 0 0 0 
731 1 6.8395 -11.481 -6.85335 0 0 0 
1393 2 7.74727 -11.8741 -7.40949 0 0 0 
396 1 8.45497 -11.3087 -6.74056 0 0 0 
1469 2 13.778 -11.5122 -7.63158 0 0 0 
821 1 2.0101 -10.6176 -7.30213 0 0 0 
1105 2 2.96775 -11.0306 -7.76139 0 0 0 
1331 2 2.96145 -10.0407 -7.36248 0 0 0 
312 1 3.86933 -10.387 -7.15116 0 0 0 
1374 2 4.85052 -10.7691 -7.11251 0 0 0 
1002 2 6.00029 -10.8429 -7.15397 0 0 0 
1130 2 7.92683 -10.7524 -7.6368 0 0 0 
397 1 9.01782 -10.8429 -7.32473 0 0 0 
349 1 10.6073 -11.0175 -7.45226 0 0 0 
350 1 11.3844 -10.4374 -7.02401 0 0 0 
368 1 12.5546 -10.4146 -7.40753 0 0 0 
366 1 14.0316 -10.4133 -7.68443 0 0 0 
367 1 13.3643 -10.3921 -6.91434 0 0 0 
820 1 2.06386 -9.72608 -6.86768 0 0 0 
313 1 3.85203 -9.44093 -7.29338 0 0 0 
1443 2 5.2499 -9.08666 -7.14767 0 0 0 
1165 2 6.42683 -9.48874 -7.32855 0 0 0 
271 1 8.1195 -9.02271 -6.70632 0 0 0 
1307 2 10.6171 -9.60665 -7.05781 0 0 0 
351 1 11.5082 -9.5515 -6.77516 0 0 0 
743 1 1.50179 -7.9322 -7.4337 0 0 0 
1378 2 2.64261 -7.89293 -7.30568 0 0 0 
314 1 3.44025 -8.57416 -7.59142 0 0 0 
1523 2 4.3669 -7.8869 -6.83466 0 0 0 
1219 2 5.91353 -8.22392 -7.36752 0 0 0 
270 1 8.34643 -8.16705 -7.15831 0 0 0 
220 1 11.0896 -7.94646 -7.40508 0 0 0 
221 1 10.5897 -8.39415 -6.68268 0 0 0 
802 1 -0.472948 -7.73344 -7.44681 0 0 0 
803 1 -1.01283 -7.27245 -6.77678 0 0 0 
742 1 1.84121 -7.06351 -7.43997 0 0 0 
315 1 3.65276 -7.62399 -7.4617 0 0 0 
565 1 5.03561 -7.53177 -7.75272 0 0 0 
566 1 5.2839 -7.03935 -6.92802 0 0 0 
831 1 6.59744 -7.4796 -6.68093 0 0 0 
832 1 7.17801 -7.3758 -7.42065 0 0 0 
1546 2 7.9269 -6.75896 -6.77467 0 0 0 
1030 2 -0.200816 -6.60836 -6.96219 0 0 0 
675 1 0.909523 -6.30422 -6.95002 0 0 0 
741 1 2.10541 -6.35289 -6.82162 0 0 0 
317 1 3.17698 -5.74691 -7.31623 0 0 0 
316 1 3.48454 -6.65175 -7.06431 0 0 0 
1548 2 4.53341 -6.3351 -7.48916 0 0 0 
1232 2 6.4728 -6.37682 -6.69212 0 0 0 
210 1 8.81573 -5.9513 -7.13332 0 0 0 
170 1 12.4104 -5.69782 -7.70648 0 0 0 
169 1 12.3918 -6.22549 -6.92242 0 0 0 
1328 2 13.8427 -6.37918 -7.11337 0 0 0 
1042 2 -1.05215 -4.57067 -6.99627 0 0 0 
1148 2 -0.199329 -5.51047 -6.88145 0 0 0 
773 1 0.534117 -4.55164 -7.34509 0 0 0 
1463 2 2.09475 -5.44262 -7.11027 0 0 0 
1465 2 1.59012 -4.44774 -7.15099 0 0 0 
669 1 3.92534 -4.60804 -7.03588 0 0 0 
1416 2 5.3472 -5.42239 -6.93976 0 0 0 
668 1 4.56705 -5.07153 -7.60365 0 0 0 
835 1 6.70761 -5.26328 -7.5607 0 0 0 
836 1 7.03441 -4.669 -6.89342 0 0 0 
211 1 8.42293 -5.07446 -7.24628 0 0 0 
1432 2 9.59811 -5.12893 -7.39661 0 0 0 
1375 2 13.3273 -5.31974 -7.11483 0 0 0 
1381 2 -10.9517 -4.09183 -7.69544 0 0 0 
772 1 -0.331796 -4.37247 -7.64204 0 0 0 
1053 2 1.16088 -3.42004 -7.506 0 0 0 
1084 2 2.92499 -4.32647 -7.12412 0 0 0 
1351 2 3.29071 -3.44874 -7.63986 0 0 0 
1490 2 4.68356 -3.95109 -7.57062 0 0 0 
666 1 5.71257 -4.24476 -7.00895 0 0 0 
1185 2 6.86957 -3.56514 -6.88254 0 0 0 
212 1 8.60157 -4.31049 -7.74764 0 0 0 
1298 2 7.84741 -3.61846 -7.25746 0 0 0 
1068 2 9.71786 -3.34326 -6.7973 0 0 0 
148 1 10.8908 -3.85052 -7.24675 0 0 0 
147 1 10.1112 -4.32279 -6.78475 0 0 0 
172 1 13.1031 -4.07085 -7.62407 0 0 0 
1500 2 14.1624 -4.3944 -7.32874 0 0 0 
1142 2 -0.0149619 -3.09783 -7.26564 0 0 0 
69 1 0.93449 -2.39983 -7.62821 0 0 0 
68 1 0.486158 -2.38373 -6.6705 0 0 0 
1534 2 1.98581 -2.73195 -7.2296 0 0 0 
72 1 3.21353 -2.44764 -6.99131 0 0 0 
73 1 4.05391 -2.80917 -7.20001 0 0 0 
74 1 4.86327 -2.36651 -7.21866 0 0 0 
1358 2 5.58921 -3.27126 -7.48447 0 0 0 
1181 2 6.85262 -2.40335 -7.22061 0 0 0 
1179 2 8.06384 -2.3786 -7.04678 0 0 0 
1060 2 8.90315 -3.10597 -7.4972 0 0 0 
1491 2 9.89443 -2.76423 -7.68796 0 0 0 
149 1 11.4428 -3.11132 -7.41688 0 0 0 
1323 2 13.4441 -3.11997 -7.29912 0 0 0 
174 1 14.4756 -3.04516 -7.73754 0 0 0 
175 1 14.4586 -2.78512 -6.8175 0 0 0 
70 1 1.64418 -1.76833 -7.47856 0 0 0 
71 1 2.67575 -2.08572 -7.70865 0 0 0 
1486 2 2.51325 -1.57498 -6.76975 0 0 0 
1422 2 4.15828 -1.68819 -7.24744 0 0 0 
76 1 6.23591 -1.57544 -6.73002 0 0 0 
77 1 7.05198 -1.4454 -7.28214 0 0 0 
1288 2 8.26681 -1.31144 -6.80104 0 0 0 
1411 2 9.38408 -1.28243 -6.94285 0 0 0 
529 1 10.4291 -1.30149 -7.04282 0 0 0 
1102 2 10.8552 -2.0835 -7.6257 0 0 0 
1016 2 12.0802 -2.03852 -6.85151 0 0 0 
1442 2 2.55903 -0.99921 -7.69036 0 0 0 
651 1 3.66858 -0.504978 -7.28809 0 0 0 
1213 2 4.91615 -0.917211 -7.3267 0 0 0 
1239 2 5.87272 -0.606036 -7.38856 0 0 0 
1517 2 7.07014 -0.339232 -7.66794 0 0 0 
1520 2 7.64175 -0.411042 -6.70024 0 0 0 
1349 2 8.00968 -0.00969828 -7.57503 0 0 0 
1256 2 8.83251 -0.245898 -6.83708 0 0 0 
1170 2 9.6216 -0.299912 -7.72927 0 0 0 
427 1 10.9097 -0.0472324 -7.28047 0 0 0 
528 1 11.3212 -1.09119 -6.71632 0 0 0 
1404 2 12.2937 -0.490271 -6.7295 0 0 0 
447 1 14.862 -0.666859 -7.13542 0 0 0 
872 1 3.45911 0.441413 -7.18536 0 0 0 
1104 2 4.65295 0.143424 -7.05777 0 0 0 
420 1 6.36555 0.465914 -7.68304 0 0 0 
421 1 6.99928 0.409987 -6.97862 0 0 0 
426 1 10.184 0.0787885 -6.67575 0 0 0 
648 1 4.45436 1.4806 -7.35989 0 0 0 
1451 2 5.41185 1.28822 -7.66247 0 0 0 
1008 2 6.55259 1.45527 -7.38376 0 0 0 
1241 2 7.61818 1.27465 -7.485 0 0 0 
130 1 8.75154 1.13014 -7.75221 0 0 0 
131 1 8.58849 1.87037 -7.13407 0 0 0 
1426 2 -12.7397 2.77988 -6.99363 0 0 0 
1001 2 4.81354 2.55882 -7.74922 0 0 0 
1073 2 6.02486 2.34718 -7.42795 0 0 0 
1343 2 7.26529 2.35271 -6.9349 0 0 0 
896 1 -8.04988 4.29514 -7.04428 0 0 0 
895 1 -7.46322 4.04034 -7.73576 0 0 0 
456 1 8.80438 4.36762 -7.42996 0 0 0 
457 1 8.11678 4.23221 -6.79344 0 0 0 
455 1 9.5846 4.19504 -6.97523 0 0 0 
454 1 10.5224 4.27614 -6.67601 0 0 0 
453 1 11.1275 3.50665 -6.669 0 0 0 
1221 2 -4.00994 8.42368 -6.92113 0 0 0 
1145 2 -9.60496 9.4556 -7.04602 0 0 0 
917 1 -4.90189 9.51918 -6.83075 0 0 0 
918 1 -4.53352 8.94888 -7.60504 0 0 0 
960 1 -4.63363 10.8873 -7.19602 0 0 0 
924 1 -1.17522 10.6382 -7.71059 0 0 0 
925 1 -0.278986 10.4647 -7.2753 0 0 0 
926 1 0.598154 10.2058 -7.34877 0 0 0 
927 1 1.43259 10.2269 -6.81238 0 0 0 
934 1 3.56081 13.7796 -7.21653 0 0 0 
307 1 1.18225 -14.0058 -6.07853 0 0 0 
308 1 2.06524 -13.5217 -6.2192 0 0 0 
253 1 3.71454 -13.4349 -5.927 0 0 0 
387 1 6.29666 -13.7916 -5.64398 0 0 0 
1357 2 17.2209 -13.4831 -6.17285 0 0 0 
309 1 2.64627 -12.7527 -6.39119 0 0 0 
386 1 6.41132 -13.1337 -6.35577 0 0 0 
1515 2 7.40003 -12.3751 -5.85256 0 0 0 
360 1 15.6524 -12.8216 -5.87082 0 0 0 
823 1 2.95493 -11.2256 -5.87584 0 0 0 
310 1 3.37453 -12.114 -6.60143 0 0 0 
295 1 4.99625 -11.9808 -5.78653 0 0 0 
732 1 6.52978 -11.1799 -5.89576 0 0 0 
395 1 8.11424 -11.1333 -5.87234 0 0 0 
53 1 -3.05586 -10.1413 -6.06135 0 0 0 
1473 2 2.66256 -10.1055 -5.7718 0 0 0 
822 1 2.22581 -11.0929 -6.50816 0 0 0 
1038 2 4.17647 -10.6121 -5.99602 0 0 0 
1114 2 5.39153 -10.9724 -6.08882 0 0 0 
1090 2 6.99626 -10.5004 -6.6593 0 0 0 
1236 2 8.89305 -10.0369 -6.55023 0 0 0 
54 1 -2.37675 -9.48523 -6.174 0 0 0 
55 1 -1.5561 -9.04935 -6.43316 0 0 0 
1058 2 1.44945 -9.37236 -6.05474 0 0 0 
819 1 2.60346 -9.03149 -6.46774 0 0 0 
1322 2 3.58168 -9.50702 -6.29443 0 0 0 
1388 2 4.79645 -9.8751 -6.57458 0 0 0 
273 1 6.45177 -9.0297 -6.19115 0 0 0 
272 1 7.2743 -9.35757 -6.42605 0 0 0 
223 1 9.98928 -9.7611 -5.68061 0 0 0 
222 1 10.0815 -9.11701 -6.34115 0 0 0 
352 1 11.9052 -9.23622 -5.95821 0 0 0 
56 1 -0.87846 -8.63709 -5.87767 0 0 0 
57 1 -0.0287259 -8.27616 -5.71807 0 0 0 
1353 2 2.37745 -7.86994 -5.83163 0 0 0 
1054 2 3.488 -8.4722 -6.59168 0 0 0 
1085 2 4.04581 -7.87797 -5.73996 0 0 0 
1177 2 4.71505 -8.71355 -6.28471 0 0 0 
1287 2 5.42909 -7.89335 -6.39948 0 0 0 
830 1 6.5485 -7.80514 -5.76525 0 0 0 
274 1 5.68451 -8.56746 -5.7043 0 0 0 
1423 2 7.79957 -7.78082 -6.31488 0 0 0 
804 1 -0.707806 -7.13116 -5.90541 0 0 0 
1182 2 0.538487 -6.96741 -5.63892 0 0 0 
1017 2 3.26385 -7.40328 -6.3291 0 0 0 
1201 2 4.20576 -7.00703 -6.39306 0 0 0 
1074 2 7.3978 -6.88541 -5.84644 0 0 0 
168 1 12.8609 -7.01708 -6.63185 0 0 0 
167 1 13.3756 -6.99825 -5.82249 0 0 0 
805 1 -0.826261 -6.26816 -5.70116 0 0 0 
1159 2 0.130874 -5.70454 -5.81212 0 0 0 
674 1 1.23366 -6.01278 -6.07454 0 0 0 
740 1 2.25409 -6.58725 -5.88001 0 0 0 
1095 2 3.34819 -5.96917 -6.07773 0 0 0 
1020 2 4.38473 -5.77793 -6.48039 0 0 0 
1412 2 4.4326 -6.30623 -5.56201 0 0 0 
567 1 5.25381 -6.39243 -6.20555 0 0 0 
1267 2 8.24408 -5.97629 -5.88492 0 0 0 
209 1 9.38931 -6.50331 -6.53782 0 0 0 
208 1 10.0858 -6.35339 -5.78873 0 0 0 
1364 2 13.3973 -5.74956 -6.10543 0 0 0 
1132 2 -0.816402 -4.48084 -5.62287 0 0 0 
1481 2 1.10764 -4.80153 -6.21135 0 0 0 
1339 2 2.87699 -5.01147 -6.26083 0 0 0 
670 1 3.95169 -4.87915 -6.10597 0 0 0 
1283 2 5.48109 -5.20454 -5.87475 0 0 0 
1094 2 6.54876 -5.39953 -6.34407 0 0 0 
837 1 7.55683 -4.88257 -6.13742 0 0 0 
1129 2 8.81272 -5.16649 -6.26185 0 0 0 
146 1 9.6347 -4.46659 -5.92646 0 0 0 
1278 2 9.93468 -5.3668 -6.30561 0 0 0 
1528 2 -0.912441 -3.66538 -6.32339 0 0 0 
1421 2 0.159115 -3.99647 -6.48908 0 0 0 
1449 2 1.96498 -3.35396 -5.60008 0 0 0 
1495 2 2.05069 -4.36716 -5.90795 0 0 0 
1510 2 3.17238 -4.0826 -5.9502 0 0 0 
1487 2 2.62523 -3.40795 -6.55118 0 0 0 