ITEM: TIMESTEP
10000000
ITEM: NUMBER OF ATOMS
1300
ITEM: BOX BOUNDS pp pp pp
-3.0000000000000000e+01 3.0000000000000000e+01
-3.0000000000000000e+01 3.0000000000000000e+01
-3.0000000000000000e+01 3.0000000000000000e+01
ITEM: ATOMS id type x y z ix iy iz 
1118 2 16.4235 4.70259 -17.8818 0 0 0 
164 1 -15.3136 -7.01424 -16.7925 0 0 0 
1160 2 -9.25875 -6.81611 -17.3409 0 0 0 
441 1 3.34661 -1.39089 -16.727 0 0 0 
440 1 4.21726 -0.953593 -16.7729 0 0 0 
439 1 5.05086 -0.592213 -16.8968 0 0 0 
1009 2 6.40686 -0.246604 -16.7608 0 0 0 
438 1 5.51793 0.215473 -16.7337 0 0 0 
437 1 6.29036 0.821383 -16.7685 0 0 0 
436 1 6.33532 1.72056 -17.0088 0 0 0 
435 1 6.1648 2.64715 -17.3459 0 0 0 
434 1 6.55192 3.55333 -17.5235 0 0 0 
432 1 6.0575 5.05538 -16.9545 0 0 0 
433 1 6.69198 4.49385 -17.5145 0 0 0 
1223 2 6.77239 5.6483 -17.5009 0 0 0 
1224 2 8.83289 6.93229 -16.9735 0 0 0 
1057 2 13.7601 8.9894 -17.1185 0 0 0 
1186 2 1.72493 10.5822 -17.6152 0 0 0 
1254 2 10.7878 14.1047 -16.9821 0 0 0 
1165 2 -8.21593 15.0215 -17.6219 0 0 0 
1194 2 7.01961 17.6907 -16.9711 0 0 0 
156 1 -15.8344 -13.6241 -15.7366 0 0 0 
1065 2 -12.6765 -13.6187 -16.0638 0 0 0 
157 1 -15.3757 -12.8492 -15.7544 0 0 0 
158 1 -14.7243 -12.1411 -15.7392 0 0 0 
159 1 -14.248 -11.3195 -15.7279 0 0 0 
1034 2 -7.27412 -11.9814 -15.5655 0 0 0 
1044 2 0.415378 -11.1305 -15.8049 0 0 0 
160 1 -14.7302 -10.4281 -15.869 0 0 0 
161 1 -14.9638 -9.44373 -15.9243 0 0 0 
162 1 -15.1342 -8.46966 -16.023 0 0 0 
163 1 -15.5627 -7.5929 -16.1553 0 0 0 
506 1 -7.98845 -6.82662 -16.2684 0 0 0 
505 1 -7.49944 -7.42716 -15.7451 0 0 0 
1080 2 6.08645 -7.48767 -15.6785 0 0 0 
165 1 -15.1627 -6.447 -15.9916 0 0 0 
508 1 -9.55289 -5.80364 -16.1625 0 0 0 
507 1 -8.76631 -6.26792 -16.5114 0 0 0 
1084 2 -6.61572 -6.4627 -16.3583 0 0 0 
442 1 3.10565 -1.82296 -15.884 0 0 0 
1139 2 5.84203 -1.39492 -16.4952 0 0 0 
1265 2 4.92181 1.29979 -16.1747 0 0 0 
431 1 5.48946 5.38919 -16.2985 0 0 0 
430 1 4.67098 5.57507 -15.8212 0 0 0 
1097 2 -5.42195 8.90812 -16.3851 0 0 0 
911 1 -1.23915 13.7617 -15.8687 0 0 0 
912 1 -0.299502 13.4838 -15.9932 0 0 0 
151 1 -15.6476 -17.8225 -15.2359 0 0 0 
150 1 -14.7293 -18.2623 -15.5549 0 0 0 
152 1 -16.1331 -17.2063 -14.672 0 0 0 
149 1 -14.4646 -17.6297 -14.922 0 0 0 
1117 2 -12.9165 -17.1755 -15.0381 0 0 0 
153 1 -16.4879 -16.3074 -14.7916 0 0 0 
155 1 -16.1122 -14.4696 -15.3743 0 0 0 
154 1 -16.286 -15.3835 -15.0137 0 0 0 
1051 2 16.4399 -15.3071 -15.2648 0 0 0 
1245 2 -17.1516 -14.0597 -15.0743 0 0 0 
248 1 2.59616 -12.2761 -14.9616 0 0 0 
250 1 0.792188 -11.7762 -14.7948 0 0 0 
249 1 1.7371 -12.024 -14.6265 0 0 0 
247 1 3.50205 -11.8219 -15.1022 0 0 0 
246 1 4.30378 -11.4488 -14.819 0 0 0 
501 1 -6.76651 -10.4201 -14.6968 0 0 0 
502 1 -6.83349 -9.53197 -14.9728 0 0 0 
504 1 -6.97438 -7.86464 -14.9445 0 0 0 
503 1 -6.4483 -8.64874 -14.8462 0 0 0 
166 1 -15.3071 -5.9124 -15.193 0 0 0 
510 1 -10.4093 -4.89191 -14.7532 0 0 0 
509 1 -10.0233 -5.48559 -15.3533 0 0 0 
446 1 4.62304 -4.66112 -15.094 0 0 0 
447 1 5.56708 -4.50778 -15.3063 0 0 0 
444 1 3.31568 -3.40758 -14.8507 0 0 0 
445 1 3.82235 -4.24767 -14.6905 0 0 0 
448 1 6.18775 -3.68155 -15.2653 0 0 0 
449 1 6.93533 -3.89469 -14.7106 0 0 0 
1213 2 11.2712 -4.15048 -15.5143 0 0 0 
513 1 -8.61087 -3.10351 -14.798 0 0 0 
514 1 -7.65896 -3.17604 -14.5014 0 0 0 
515 1 -6.75415 -3.05759 -14.6943 0 0 0 
443 1 3.02432 -2.62821 -15.3935 0 0 0 
1170 2 5.28305 -0.790519 -14.6088 0 0 0 
1096 2 6.30555 -0.78432 -15.4666 0 0 0 
1222 2 -6.92109 0.0562532 -14.7815 0 0 0 
1261 2 -7.00848 3.14656 -14.9546 0 0 0 
429 1 4.01199 5.72214 -15.1082 0 0 0 
1173 2 17.0961 5.66513 -14.8921 0 0 0 
899 1 3.69415 9.11572 -14.9714 0 0 0 
900 1 4.27764 9.84306 -15.1079 0 0 0 
901 1 4.34166 10.7447 -15.2844 0 0 0 
915 1 1.52935 12.0911 -14.672 0 0 0 
902 1 3.92721 11.6452 -15.492 0 0 0 
913 1 -0.016557 12.569 -15.5518 0 0 0 
914 1 0.893446 12.4077 -15.3352 0 0 0 
903 1 3.42003 12.4581 -15.4227 0 0 0 
910 1 -0.955538 13.419 -14.9929 0 0 0 
906 1 1.80787 13.9318 -14.4737 0 0 0 
905 1 2.68593 13.9631 -14.8232 0 0 0 
904 1 3.21931 13.3613 -15.2503 0 0 0 
1104 2 -12.5019 15.9827 -15.3047 0 0 0 
1062 2 2.97945 16.5987 -14.5865 0 0 0 
1285 2 10.58 16.291 -15.3413 0 0 0 
1197 2 6.5148 -17.8561 -13.5547 0 0 0 
148 1 -14.3324 -16.8598 -14.3834 0 0 0 
1033 2 -15.3819 -16.4556 -14.376 0 0 0 
147 1 -14.3434 -15.985 -13.9171 0 0 0 
145 1 -15.632 -14.9654 -13.4816 0 0 0 
144 1 -16.4746 -14.7816 -13.9939 0 0 0 
146 1 -14.7181 -15.1026 -13.6353 0 0 0 
253 1 -1.74493 -12.4514 -13.4412 0 0 0 
252 1 -0.902477 -12.223 -13.9272 0 0 0 
251 1 -0.0782495 -11.7719 -14.3628 0 0 0 
244 1 3.22909 -11.5364 -13.8135 0 0 0 
245 1 4.08255 -11.9657 -14.0538 0 0 0 
500 1 -7.12311 -10.7824 -13.8323 0 0 0 
242 1 2.07105 -10.243 -13.4032 0 0 0 
243 1 2.49643 -10.9458 -14.0147 0 0 0 
181 1 -11.1481 -7.90125 -14.0271 0 0 0 
182 1 -10.4268 -8.26059 -13.5233 0 0 0 
1052 2 -2.24698 -7.91184 -13.8645 0 0 0 
180 1 -11.4201 -7.01153 -13.9484 0 0 0 
179 1 -10.9595 -6.2978 -13.454 0 0 0 
167 1 -15.7602 -5.41147 -14.4396 0 0 0 
168 1 -15.6305 -4.51645 -14.0719 0 0 0 
1091 2 1.66167 -4.83102 -14.1906 0 0 0 
451 1 8.16645 -4.72633 -13.616 0 0 0 
169 1 -14.9753 -3.75152 -13.9314 0 0 0 
511 1 -10.0162 -4.03475 -14.3762 0 0 0 
1234 2 -8.49261 -4.02943 -14.2328 0 0 0 
1292 2 1.57555 -3.75873 -13.6932 0 0 0 
450 1 7.6559 -4.09849 -14.1314 0 0 0 
170 1 -14.4855 -2.93446 -13.6285 0 0 0 
512 1 -9.55687 -3.19115 -14.4194 0 0 0 
516 1 -5.96009 -2.76786 -14.3244 0 0 0 
171 1 -14.2401 -1.9874 -13.4374 0 0 0 
517 1 -5.26603 -2.14818 -14.0051 0 0 0 
518 1 -4.42685 -1.65262 -13.5512 0 0 0 
519 1 -3.59687 -1.21126 -13.4384 0 0 0 
1273 2 16.1106 1.84792 -14.034 0 0 0 
424 1 1.93192 3.28467 -13.4531 0 0 0 
425 1 1.59332 4.10328 -13.9065 0 0 0 
426 1 2.23856 4.69991 -14.2922 0 0 0 
427 1 2.84463 5.41385 -14.2267 0 0 0 
1023 2 -16.3387 6.27571 -13.6453 0 0 0 
1299 2 -4.33389 6.30519 -13.5208 0 0 0 
428 1 3.49799 6.08359 -14.3508 0 0 0 
1086 2 -14.6676 9.57941 -14.0136 0 0 0 
898 1 4.10192 9.12603 -14.0396 0 0 0 
916 1 1.89071 11.5608 -13.9954 0 0 0 
1278 2 11.0758 11.6283 -13.6572 0 0 0 
909 1 -0.902304 13.2398 -14.0335 0 0 0 
1191 2 0.309491 12.6928 -14.1771 0 0 0 
908 1 0.0211497 13.6329 -13.843 0 0 0 
907 1 0.896835 13.949 -14.0915 0 0 0 
1257 2 -10.463 15.2674 -13.6439 0 0 0 
1226 2 -9.04739 15.1197 -13.4736 0 0 0 
1238 2 -10.2669 -18.1134 -12.7404 0 0 0 
216 1 -2.57191 -14.5294 -12.2841 0 0 0 
215 1 -2.03613 -15.2872 -12.4853 0 0 0 
143 1 -16.2897 -14.1428 -13.3086 0 0 0 
142 1 -15.7713 -14.144 -12.4314 0 0 0 
254 1 -1.50541 -12.2674 -12.4806 0 0 0 
258 1 2.06745 -12.3994 -13.2832 0 0 0 
259 1 2.86532 -12.2673 -12.7548 0 0 0 
255 1 -0.705267 -11.8116 -12.7085 0 0 0 
256 1 0.210321 -11.9467 -13.1457 0 0 0 
257 1 1.13193 -12.1406 -13.0713 0 0 0 
499 1 -7.42966 -10.8366 -12.8323 0 0 0 
184 1 -10.0149 -9.74622 -12.4726 0 0 0 
241 1 2.19796 -9.67461 -12.6226 0 0 0 
1090 2 -13.378 -7.92789 -12.6944 0 0 0 
183 1 -10.0205 -8.85228 -12.9052 0 0 0 
265 1 4.23018 -7.94082 -12.292 0 0 0 
1126 2 3.33935 -8.49851 -12.5217 0 0 0 
453 1 8.63937 -6.30983 -12.6542 0 0 0 
178 1 -10.676 -5.41486 -13.2842 0 0 0 
177 1 -10.4836 -4.62894 -12.721 0 0 0 
268 1 4.7712 -5.33301 -12.3814 0 0 0 
452 1 8.43119 -5.51954 -13.2353 0 0 0 
730 1 -3.45777 -4.1355 -12.2266 0 0 0 
724 1 0.469819 -3.65137 -12.8636 0 0 0 
723 1 1.04825 -4.20435 -12.354 0 0 0 
722 1 1.76246 -3.47418 -12.4274 0 0 0 
172 1 -13.5852 -2.46798 -12.93 0 0 0 
173 1 -12.8838 -2.43883 -12.2465 0 0 0 
728 1 -2.91197 -2.46133 -12.9765 0 0 0 
729 1 -3.22486 -3.31502 -12.6106 0 0 0 
726 1 -1.21571 -3.10326 -12.998 0 0 0 
727 1 -2.05105 -2.64325 -13.2215 0 0 0 
725 1 -0.292556 -3.28162 -13.2266 0 0 0 
718 1 0.18215 -2.37636 -12.7776 0 0 0 
721 1 2.21618 -2.51296 -12.507 0 0 0 
1259 2 1.41731 -2.7608 -13.2662 0 0 0 
520 1 -2.86139 -1.15016 -12.7804 0 0 0 
719 1 0.982927 -1.80565 -12.7987 0 0 0 
720 1 1.89531 -1.70742 -12.9537 0 0 0 
423 1 2.82032 3.02419 -13.2192 0 0 0 
422 1 3.59304 2.66503 -12.6198 0 0 0 
897 1 3.92757 8.57205 -13.2169 0 0 0 
896 1 3.85845 8.1404 -12.3413 0 0 0 
1185 2 3.35848 9.31591 -12.2592 0 0 0 
918 1 2.72731 10.8359 -12.5997 0 0 0 
917 1 2.09963 11.4846 -13.0306 0 0 0 
214 1 -1.66847 -16.1058 -12.0911 0 0 0 
213 1 -1.96661 -16.1711 -11.1676 0 0 0 
141 1 -15.4343 -14.4805 -11.6092 0 0 0 
193 1 -8.70137 -14.6718 -11.6089 0 0 0 
194 1 -7.771 -14.4775 -11.4346 0 0 0 
1066 2 -3.13703 -15.4207 -11.3391 0 0 0 
191 1 -10.2104 -13.6205 -11.7962 0 0 0 
192 1 -9.63289 -14.3666 -11.8292 0 0 0 
195 1 -7.54154 -13.556 -11.203 0 0 0 
217 1 -3.41526 -14.4083 -11.6762 0 0 0 
190 1 -10.4107 -12.8507 -11.2928 0 0 0 
668 1 0.747087 -12.7264 -11.2831 0 0 0 
233 1 -2.08773 -11.3633 -11.1361 0 0 0 
667 1 0.797976 -12.0554 -12.0559 0 0 0 
666 1 0.490808 -11.3125 -11.5806 0 0 0 
260 1 3.37083 -11.7144 -12.1883 0 0 0 
261 1 4.30253 -11.4057 -11.7933 0 0 0 
186 1 -11.0923 -10.4707 -11.222 0 0 0 
498 1 -7.4834 -10.9022 -11.8498 0 0 0 
230 1 -3.84017 -10.6107 -11.1587 0 0 0 
232 1 -2.30922 -10.8012 -11.8545 0 0 0 
231 1 -3.17261 -10.3535 -11.8362 0 0 0 
665 1 -0.424995 -10.9946 -11.4513 0 0 0 
664 1 -1.03702 -10.3008 -11.3523 0 0 0 
240 1 2.38413 -10.2542 -11.8271 0 0 0 
262 1 4.77129 -10.6101 -11.8679 0 0 0 
185 1 -10.8742 -9.87267 -11.962 0 0 0 
263 1 4.45295 -9.67079 -11.6598 0 0 0 
264 1 4.09255 -8.73209 -11.7756 0 0 0 
266 1 4.77722 -7.29026 -11.8739 0 0 0 
455 1 7.68785 -7.41001 -11.385 0 0 0 
454 1 8.08255 -6.74319 -11.9579 0 0 0 
1105 2 4.00066 -5.71631 -11.7095 0 0 0 
267 1 5.04259 -6.24238 -12.1452 0 0 0 
269 1 4.28533 -4.6448 -11.8445 0 0 0 
176 1 -10.933 -4.18127 -11.9258 0 0 0 
731 1 -2.91224 -4.01019 -11.2706 0 0 0 
270 1 3.63411 -4.32342 -11.151 0 0 0 
175 1 -11.2441 -3.26304 -11.8063 0 0 0 
174 1 -11.8577 -2.48715 -12.016 0 0 0 
1049 2 -4.10416 -2.88549 -11.4425 0 0 0 
521 1 -2.90756 -1.37977 -11.8895 0 0 0 
717 1 -0.18827 -2.19158 -11.9058 0 0 0 
716 1 -0.40365 -1.59429 -11.2099 0 0 0 
1293 2 8.57674 1.90269 -11.7116 0 0 0 
1256 2 -15.301 3.09662 -11.6103 0 0 0 
1168 2 1.63715 2.53774 -11.4045 0 0 0 
421 1 4.04764 2.75094 -11.7539 0 0 0 
420 1 4.75145 2.49 -11.2053 0 0 0 
876 1 -1.16507 5.98628 -11.5355 0 0 0 
877 1 -1.6437 6.72707 -11.2737 0 0 0 
895 1 3.88024 7.72511 -11.4203 0 0 0 
919 1 3.33853 10.3144 -11.9984 0 0 0 
1088 2 -6.14231 12.8353 -11.8258 0 0 0 
212 1 -2.47412 -15.7437 -10.4165 0 0 0 
140 1 -15.8343 -15.107 -10.9302 0 0 0 
139 1 -15.3554 -14.9189 -10.023 0 0 0 
219 1 -4.71934 -14.795 -10.3654 0 0 0 
218 1 -4.1044 -14.484 -11.0502 0 0 0 
220 1 -3.90802 -15.2675 -10.091 0 0 0 
211 1 -2.56867 -14.8109 -10.0416 0 0 0 
196 1 -7.84747 -13.4588 -10.3214 0 0 0 
224 1 -5.60609 -13.7827 -10.2434 0 0 0 
1195 2 -15.2448 -12.4341 -10.5066 0 0 0 
189 1 -10.8715 -12.5268 -10.5084 0 0 0 
1154 2 -8.52475 -12.8756 -11.0313 0 0 0 
225 1 -5.81157 -12.8579 -10.6034 0 0 0 
1260 2 -0.419769 -12.2874 -10.983 0 0 0 
669 1 0.548833 -13.2928 -10.552 0 0 0 
188 1 -11.4532 -11.8881 -10.0265 0 0 0 
226 1 -6.14797 -12.0662 -10.8292 0 0 0 
234 1 -1.24848 -11.6214 -10.7711 0 0 0 
1296 2 6.79815 -11.114 -11.1054 0 0 0 
187 1 -11.5801 -11.0986 -10.7335 0 0 0 
497 1 -7.66984 -10.4863 -10.9951 0 0 0 
1289 2 -5.4732 -10.8949 -10.8861 0 0 0 
229 1 -4.40817 -10.7493 -10.3639 0 0 0 
1282 2 -1.98011 -10.6911 -10.2168 0 0 0 
239 1 1.96689 -10.2774 -10.9481 0 0 0 
238 1 1.53601 -10.9089 -10.2778 0 0 0 
1011 2 4.95516 -10.1818 -10.3535 0 0 0 
496 1 -7.92097 -9.71291 -10.4955 0 0 0 
663 1 -1.2214 -9.88646 -10.3906 0 0 0 
456 1 7.64842 -7.29768 -10.4454 0 0 0 
457 1 6.7363 -7.28321 -10.1823 0 0 0 
477 1 -5.49407 -3.66179 -10.2473 0 0 0 
732 1 -2.56176 -3.82917 -10.4387 0 0 0 
271 1 3.9751 -3.68206 -10.5167 0 0 0 
476 1 -4.69325 -3.10226 -10.5108 0 0 0 
475 1 -4.09765 -2.54179 -10.0637 0 0 0 
473 1 -2.70192 -2.59892 -10.9364 0 0 0 
472 1 -1.77218 -2.94571 -10.9145 0 0 0 
470 1 -0.0716514 -2.68792 -10.2136 0 0 0 
471 1 -0.957042 -2.41255 -10.5586 0 0 0 
474 1 -3.63309 -2.13369 -10.7836 0 0 0 
522 1 -3.26104 -1.12092 -10.9757 0 0 0 
523 1 -3.33246 -0.799044 -10.0331 0 0 0 
715 1 -0.372916 -1.05531 -10.4036 0 0 0 
1182 2 12.1178 1.57468 -10.7572 0 0 0 
868 1 1.16444 2.86348 -10.2907 0 0 0 
419 1 5.34551 3.13811 -10.9031 0 0 0 
867 1 1.34279 3.72299 -10.7217 0 0 0 
866 1 2.10287 4.23779 -10.4585 0 0 0 
418 1 6.02357 3.78732 -10.4899 0 0 0 
1281 2 0.805523 4.78117 -10.0088 0 0 0 
865 1 2.80038 4.59945 -10.004 0 0 0 
417 1 5.74662 4.71769 -10.4371 0 0 0 
875 1 -0.892741 5.80574 -10.6822 0 0 0 
893 1 3.16179 6.32793 -10.3693 0 0 0 
416 1 5.95047 5.65608 -10.4196 0 0 0 
415 1 5.82282 6.54019 -10.1388 0 0 0 
878 1 -2.28627 6.94315 -10.5415 0 0 0 
894 1 3.53013 7.05317 -10.8567 0 0 0 
1102 2 -10.2991 8.59213 -10.6628 0 0 0 
1127 2 6.55609 9.53492 -10.524 0 0 0 
1098 2 -3.32052 10.6102 -10.3816 0 0 0 
920 1 3.57648 10.4354 -11.0443 0 0 0 
921 1 4.17573 10.523 -10.2812 0 0 0 
924 1 5.56056 12.1239 -10.5613 0 0 0 
926 1 7.03065 11.6549 -10.3343 0 0 0 
1129 2 -11.6738 12.4593 -10.0595 0 0 0 
925 1 6.50601 12.447 -10.5901 0 0 0 
138 1 -14.5063 -14.8744 -9.59433 0 0 0 
222 1 -4.79232 -14.8904 -8.95716 0 0 0 
221 1 -3.92911 -15.3058 -9.14455 0 0 0 
137 1 -13.659 -14.4267 -9.40566 0 0 0 
136 1 -12.8521 -14.0135 -8.99357 0 0 0 
135 1 -11.8962 -14.2748 -8.97986 0 0 0 
134 1 -10.9426 -14.4188 -8.89671 0 0 0 
223 1 -5.20626 -14.1859 -9.45276 0 0 0 
210 1 -2.1487 -14.3952 -9.25509 0 0 0 
670 1 0.871765 -13.8977 -9.95203 0 0 0 
671 1 1.37781 -14.2794 -9.17653 0 0 0 
1053 2 -12.45 -12.9688 -9.50868 0 0 0 
197 1 -7.53138 -13.3 -9.30834 0 0 0 
1149 2 6.39726 -12.431 -9.8526 0 0 0 
227 1 -6.07264 -11.5547 -9.96654 0 0 0 
228 1 -5.12765 -11.2845 -9.97395 0 0 0 
235 1 -0.65548 -11.44 -9.9781 0 0 0 
236 1 0.0933898 -10.8448 -9.79936 0 0 0 
237 1 1.01187 -11.0072 -9.5205 0 0 0 
495 1 -8.16758 -9.42914 -9.59622 0 0 0 
662 1 -1.08663 -9.34196 -9.61937 0 0 0 
1177 2 7.33906 -9.70926 -9.52081 0 0 0 
458 1 6.47825 -6.88997 -9.30925 0 0 0 
459 1 6.47052 -5.95048 -9.17224 0 0 0 
479 1 -5.82397 -4.93003 -9.01988 0 0 0 
460 1 6.05881 -5.11737 -9.35673 0 0 0 
478 1 -6.06494 -4.3163 -9.79964 0 0 0 
733 1 -2.21227 -3.32976 -9.60432 0 0 0 
469 1 0.343977 -2.68187 -9.33055 0 0 0 
272 1 3.66333 -3.05002 -9.86667 0 0 0 
273 1 3.5996 -2.52592 -9.03648 0 0 0 
1077 2 -4.9149 -2.11962 -9.74099 0 0 0 
524 1 -2.92835 -0.42678 -9.2196 0 0 0 
714 1 -0.864795 -0.337253 -9.98164 0 0 0 
713 1 -1.43521 0.0407114 -9.35788 0 0 0 
869 1 0.700444 2.64892 -9.46494 0 0 0 
1074 2 0.273245 3.9411 -9.64217 0 0 0 
1116 2 4.96637 4.21233 -9.8517 0 0 0 
1216 2 0.72099 5.33167 -9.04023 0 0 0 
1176 2 1.75273 4.58865 -9.46851 0 0 0 
864 1 3.67069 4.70136 -9.52239 0 0 0 
863 1 4.26373 5.20755 -8.93692 0 0 0 
880 1 -2.47632 6.0543 -9.02714 0 0 0 
874 1 -0.724599 6.01439 -9.72081 0 0 0 
891 1 2.10588 5.62407 -9.09627 0 0 0 
892 1 2.48143 5.9183 -9.88813 0 0 0 
1201 2 6.15866 5.582 -9.13869 0 0 0 
879 1 -2.50087 6.77278 -9.65685 0 0 0 
414 1 6.14092 6.93016 -9.35782 0 0 0 
1137 2 -10.4083 10.457 -9.44892 0 0 0 
1147 2 -9.21018 10.918 -9.89677 0 0 0 
922 1 4.75778 10.8131 -9.55919 0 0 0 
1092 2 6.8523 11.1046 -8.91325 0 0 0 
927 1 7.48833 10.9656 -9.79271 0 0 0 
928 1 7.93918 10.5024 -9.09726 0 0 0 
923 1 5.45768 11.4091 -9.94071 0 0 0 
1133 2 -14.8977 -17.673 -7.81657 0 0 0 
1046 2 5.18549 -15.9175 -8.62131 0 0 0 
1246 2 -2.80178 -15.0196 -8.65609 0 0 0 
1141 2 5.35239 -14.8284 -8.28123 0 0 0 
133 1 -10.1296 -14.133 -8.37312 0 0 0 
208 1 -3.19234 -13.5264 -7.82215 0 0 0 
209 1 -2.57104 -13.845 -8.49195 0 0 0 
672 1 2.21157 -14.0602 -8.62626 0 0 0 
673 1 3.00535 -13.9793 -8.02541 0 0 0 
198 1 -7.0709 -13.0166 -8.47279 0 0 0 
1135 2 4.34676 -12.2063 -7.86653 0 0 0 
661 1 -0.48696 -9.24134 -8.84168 0 0 0 
660 1 -0.26935 -9.57788 -7.92805 0 0 0 
494 1 -8.05456 -8.82592 -8.85144 0 0 0 
493 1 -8.77345 -8.32882 -8.43091 0 0 0 
1250 2 -13.0252 -7.30976 -8.41808 0 0 0 
492 1 -9.01569 -7.6469 -7.79092 0 0 0 
480 1 -5.39938 -4.96946 -8.16354 0 0 0 
481 1 -4.52261 -4.47303 -8.0039 0 0 0 
461 1 5.2732 -5.06444 -8.82974 0 0 0 
462 1 4.51611 -4.8306 -8.28327 0 0 0 
463 1 3.77694 -4.38192 -7.90553 0 0 0 
734 1 -1.75572 -2.85906 -8.88272 0 0 0 
735 1 -1.54201 -2.69833 -7.93294 0 0 0 
468 1 0.592343 -2.7249 -8.38365 0 0 0 
274 1 3.39964 -1.82503 -8.40631 0 0 0 
1266 2 16.6585 -2.06343 -7.84997 0 0 0 
525 1 -3.26743 -0.144877 -8.35511 0 0 0 
526 1 -3.86158 0.416478 -7.82399 0 0 0 
711 1 -2.15405 0.624778 -7.87767 0 0 0 
712 1 -2.11691 0.401217 -8.79985 0 0 0 
529 1 -4.01066 2.98975 -7.93094 0 0 0 
870 1 0.510011 3.09135 -8.61305 0 0 0 
530 1 -4.53406 3.71419 -8.30878 0 0 0 
871 1 0.397725 4.0093 -8.49157 0 0 0 
1217 2 11.5239 3.95591 -8.78952 0 0 0 
1083 2 -12.5302 5.38698 -8.20468 0 0 0 
531 1 -4.68945 4.67608 -8.4175 0 0 0 
881 1 -2.6074 5.45575 -8.30649 0 0 0 
872 1 -0.166754 4.85734 -8.51612 0 0 0 
890 1 1.86576 5.35911 -8.1557 0 0 0 
532 1 -4.48465 5.59318 -8.1801 0 0 0 
873 1 -0.605853 5.7304 -8.79088 0 0 0 
1111 2 3.89406 5.7786 -7.86983 0 0 0 
862 1 5.12793 5.65628 -8.84129 0 0 0 
861 1 4.77911 6.36529 -8.26474 0 0 0 
1288 2 -10.9189 6.90093 -8.39208 0 0 0 
1075 2 -4.27272 6.78051 -8.46429 0 0 0 
413 1 6.18253 6.72217 -8.44915 0 0 0 
929 1 8.12504 9.62627 -8.69031 0 0 0 
930 1 8.60526 9.27415 -7.86425 0 0 0 
1089 2 4.90705 11.9199 -8.14897 0 0 0 
1019 2 -1.85466 12.5868 -7.94086 0 0 0 
1103 2 -8.20279 13.5915 -8.47424 0 0 0 
131 1 -9.07204 -14.4788 -6.78071 0 0 0 
675 1 3.0573 -14.7933 -7.14874 0 0 0 
674 1 3.76916 -14.4946 -7.75973 0 0 0 
132 1 -9.62098 -14.3519 -7.60438 0 0 0 
199 1 -6.77501 -12.8654 -7.58257 0 0 0 
207 1 -3.42778 -12.7102 -7.32109 0 0 0 
1027 2 3.94184 -13.1867 -7.22681 0 0 0 
200 1 -6.56803 -12.1972 -6.97495 0 0 0 
658 1 0.520269 -11.1566 -7.12682 0 0 0 
657 1 1.4055 -11.55 -7.15629 0 0 0 
656 1 2.42231 -11.4752 -7.00452 0 0 0 
655 1 3.20051 -11.9724 -6.77729 0 0 0 
659 1 0.15843 -10.3077 -7.46611 0 0 0 
1205 2 14.6188 -10.809 -7.36648 0 0 0 
491 1 -8.45445 -6.94128 -7.4693 0 0 0 
490 1 -7.6478 -6.7149 -7.12768 0 0 0 
489 1 -6.76068 -6.45822 -6.84501 0 0 0 
1248 2 -4.43781 -4.57569 -6.88309 0 0 0 
482 1 -4.12954 -3.74923 -7.49812 0 0 0 
483 1 -3.46197 -3.63405 -6.82188 0 0 0 
466 1 1.48489 -3.5707 -6.85145 0 0 0 
464 1 3.25561 -4.04295 -7.15314 0 0 0 
465 1 2.42014 -3.76818 -6.8059 0 0 0 
736 1 -1.91705 -2.31671 -7.09279 0 0 0 
467 1 0.927032 -3.17343 -7.53936 0 0 0 
275 1 3.01209 -1.4257 -7.60361 0 0 0 
710 1 -1.47275 -0.0563783 -7.59425 0 0 0 
709 1 -1.79696 -0.354247 -6.70343 0 0 0 
276 1 2.92288 -1.01209 -6.73251 0 0 0 
527 1 -4.2194 1.18029 -7.39623 0 0 0 
528 1 -4.10528 2.18864 -7.54269 0 0 0 
882 1 -3.08244 5.14445 -7.5369 0 0 0 
883 1 -2.22143 4.877 -7.0222 0 0 0 
888 1 0.605442 4.74228 -6.92004 0 0 0 
889 1 1.19465 5.31186 -7.47552 0 0 0 
533 1 -4.33691 6.12969 -7.40596 0 0 0 
859 1 3.69044 7.4336 -7.00904 0 0 0 
860 1 4.11824 6.83902 -7.68998 0 0 0 
412 1 6.45093 7.05921 -7.61573 0 0 0 
931 1 8.88025 8.88918 -6.93042 0 0 0 
1021 2 17.3621 10.1254 -7.01599 0 0 0 
1200 2 -12.7511 14.5993 -7.5274 0 0 0 
130 1 -8.30567 -14.9329 -6.26903 0 0 0 
677 1 1.64821 -15.0221 -5.97635 0 0 0 
676 1 2.29382 -14.6756 -6.63537 0 0 0 
1119 2 10.4309 -15.439 -6.61468 0 0 0 
206 1 -3.72145 -12.2636 -6.49558 0 0 0 
201 1 -6.08485 -11.7922 -6.1367 0 0 0 
205 1 -4.07695 -11.8162 -5.57893 0 0 0 
654 1 4.11111 -11.7056 -6.5495 0 0 0 
653 1 4.69086 -11.3967 -5.83395 0 0 0 
1208 2 -12.1108 -7.20982 -5.69108 0 0 0 
488 1 -6.05043 -6.42425 -6.14412 0 0 0 
1190 2 3.91862 -6.12927 -5.59768 0 0 0 
1271 2 -12.6921 -4.9011 -6.3273 0 0 0 
486 1 -5.10697 -5.1665 -5.66838 0 0 0 
485 1 -4.36579 -4.63351 -5.70676 0 0 0 
1199 2 1.72162 -4.72457 -6.40657 0 0 0 
1159 2 2.97661 -4.79245 -6.49349 0 0 0 
484 1 -3.55771 -4.30701 -6.16267 0 0 0 
9 1 3.97768 -4.10729 -5.72015 0 0 0 
8 1 4.28961 -3.22308 -5.87129 0 0 0 
7 1 5.17896 -3.03461 -6.12494 0 0 0 
6 1 6.0999 -3.03864 -6.35309 0 0 0 
5 1 6.78528 -2.30202 -6.05934 0 0 0 
1015 2 8.20341 -3.02059 -6.23196 0 0 0 
737 1 -1.44492 -1.90298 -6.37951 0 0 0 
738 1 -0.686994 -1.86077 -5.7331 0 0 0 
4 1 7.40083 -1.63482 -5.7704 0 0 0 
708 1 -2.31707 -0.0544585 -5.93109 0 0 0 
1284 2 -3.13836 -0.783761 -5.80232 0 0 0 
396 1 1.58932 -0.611497 -5.98934 0 0 0 
277 1 2.8548 -0.208271 -6.23305 0 0 0 
398 1 0.401452 0.881918 -5.94749 0 0 0 
397 1 0.989314 0.0845979 -6.16063 0 0 0 
278 1 2.8759 0.639448 -5.74633 0 0 0 
887 1 0.372884 4.28932 -6.0694 0 0 0 
884 1 -1.59405 4.89336 -6.28226 0 0 0 
534 1 -4.11776 6.60788 -6.5963 0 0 0 
410 1 6.37732 6.56765 -5.65385 0 0 0 
535 1 -4.44208 6.77795 -5.71235 0 0 0 
411 1 6.51213 6.86207 -6.62089 0 0 0 
858 1 4.02799 7.97489 -6.32718 0 0 0 
857 1 3.59123 8.51077 -5.66865 0 0 0 
933 1 8.10999 8.23189 -5.57073 0 0 0 
932 1 8.9297 8.35761 -6.11557 0 0 0 
1161 2 7.66374 11.0692 -6.30234 0 0 0 
848 1 -2.65907 12.4528 -5.62277 0 0 0 
847 1 -2.92955 13.3267 -5.81653 0 0 0 
1079 2 0.86882 -16.7104 -5.20431 0 0 0 
679 1 0.116549 -15.6134 -4.89964 0 0 0 
1258 2 -9.0627 -14.9592 -5.21321 0 0 0 
129 1 -7.77602 -15.3269 -5.50947 0 0 0 
128 1 -6.90424 -15.0753 -5.25259 0 0 0 
127 1 -6.15423 -15.0341 -4.54208 0 0 0 
678 1 1.07351 -15.4783 -5.38639 0 0 0 
202 1 -5.94735 -11.1678 -5.47666 0 0 0 
204 1 -4.63011 -11.7014 -4.77219 0 0 0 
203 1 -5.26118 -11.0243 -4.91238 0 0 0 
688 1 2.09636 -10.5452 -4.61526 0 0 0 
652 1 4.56352 -10.8024 -5.05284 0 0 0 
689 1 2.26596 -9.71236 -4.98957 0 0 0 
346 1 0.120003 -6.80286 -4.99741 0 0 0 
13 1 3.14796 -7.0593 -4.97526 0 0 0 
14 1 4.00385 -7.58593 -5.05555 0 0 0 
487 1 -5.42892 -5.97431 -5.48188 0 0 0 
347 1 0.868533 -6.16736 -5.3269 0 0 0 
12 1 2.71976 -6.27634 -4.58681 0 0 0 
1109 2 -1.7524 -4.55747 -4.46858 0 0 0 
348 1 1.03632 -5.24065 -5.44817 0 0 0 
11 1 2.76776 -5.46482 -5.14316 0 0 0 
10 1 3.45221 -4.90752 -5.53213 0 0 0 
349 1 1.50097 -4.41349 -5.09854 0 0 0 
1214 2 0.965801 -2.83343 -4.96879 0 0 0 
739 1 -0.0474335 -1.41527 -5.06695 0 0 0 
394 1 2.44586 -1.66665 -4.59622 0 0 0 
1175 2 5.54675 -1.68 -5.53755 0 0 0 
3 1 7.89204 -1.3566 -4.9831 0 0 0 
2 1 8.66646 -1.88949 -4.71452 0 0 0 
1 1 9.66717 -2.13425 -4.96012 0 0 0 
706 1 -3.4872 -0.399793 -4.63051 0 0 0 
740 1 0.0459995 -0.62732 -4.48324 0 0 0 
395 1 2.21732 -1.10982 -5.34382 0 0 0 
1221 2 -16.9179 0.372447 -5.063 0 0 0 
707 1 -2.97423 0.164922 -5.26173 0 0 0 
399 1 0.231997 1.34659 -5.14735 0 0 0 
279 1 2.99117 1.26537 -5.01945 0 0 0 
1232 2 -3.41564 3.0909 -5.03707 0 0 0 
403 1 2.62256 3.26241 -4.60404 0 0 0 
404 1 2.98949 4.24642 -4.50109 0 0 0 
886 1 -0.143307 4.48129 -5.26479 0 0 0 
885 1 -1.01515 4.76507 -5.54763 0 0 0 
409 1 5.71112 6.48382 -5.01374 0 0 0 
1193 2 -8.6134 7.41686 -4.67772 0 0 0 
536 1 -4.4587 7.00247 -4.76157 0 0 0 
1022 2 2.52557 8.18823 -5.02354 0 0 0 
934 1 7.59552 8.68104 -4.88353 0 0 0 
854 1 1.43611 9.02596 -4.74283 0 0 0 
856 1 2.97167 9.12676 -5.35267 0 0 0 
855 1 2.34892 9.24052 -4.53224 0 0 0 
852 1 -0.00273039 10.1019 -4.81611 0 0 0 
851 1 -0.712424 10.832 -4.75904 0 0 0 
937 1 7.09859 10.6816 -4.69338 0 0 0 
850 1 -1.21154 11.6503 -4.74282 0 0 0 
849 1 -1.85297 12.1209 -5.28499 0 0 0 
938 1 7.3608 11.5105 -5.0328 0 0 0 
939 1 7.2668 12.51 -4.90071 0 0 0 
846 1 -3.10019 14.0768 -5.26418 0 0 0 
940 1 7.75228 13.3552 -4.49004 0 0 0 
1114 2 11.4766 13.403 -4.77398 0 0 0 
845 1 -3.19918 14.9144 -4.68527 0 0 0 
126 1 -5.61756 -15.0673 -3.76469 0 0 0 
680 1 -0.470666 -15.4166 -4.13805 0 0 0 
1158 2 12.3429 -15.3946 -3.62814 0 0 0 
119 1 -10.9723 -13.5409 -3.74615 0 0 0 
120 1 -10.0362 -13.815 -3.83178 0 0 0 
121 1 -9.07312 -13.8912 -4.0991 0 0 0 
122 1 -8.24229 -13.3668 -4.04178 0 0 0 
1264 2 -7.82603 -14.2696 -4.41057 0 0 0 
123 1 -7.33308 -13.6477 -3.7698 0 0 0 
682 1 -1.14893 -14.1218 -3.51487 0 0 0 
683 1 -1.22421 -13.2118 -3.91264 0 0 0 
684 1 -0.952122 -12.289 -3.90235 0 0 0 
685 1 -0.0997208 -12.1841 -4.25349 0 0 0 
686 1 0.746611 -11.8492 -4.10721 0 0 0 
687 1 1.51308 -11.301 -4.16628 0 0 0 
651 1 3.83266 -10.6947 -4.40254 0 0 0 
650 1 3.61822 -10.021 -3.75131 0 0 0 
690 1 2.34964 -8.99747 -4.424 0 0 0 
85 1 -11.1351 -8.02459 -3.53615 0 0 0 
691 1 1.97495 -8.57346 -3.61998 0 0 0 
84 1 -10.5252 -7.3406 -3.57702 0 0 0 
344 1 -0.615459 -7.59463 -3.51102 0 0 0 
345 1 -0.661747 -7.00225 -4.37729 0 0 0 
1110 2 1.25581 -7.0705 -4.332 0 0 0 
15 1 4.81888 -7.36981 -4.37694 0 0 0 
16 1 5.28424 -7.48181 -3.52222 0 0 0 
83 1 -10.1324 -6.50521 -3.73724 0 0 0 
82 1 -9.33602 -5.93535 -3.77907 0 0 0 
696 1 -1.28797 -5.37847 -3.53794 0 0 0 
1236 2 0.481052 -3.6117 -3.82192 0 0 0 
350 1 1.65775 -3.89498 -4.23218 0 0 0 
351 1 1.39767 -4.36344 -3.38864 0 0 0 
703 1 -4.65342 -2.39585 -3.65288 0 0 0 
1085 2 -3.44112 -2.44862 -3.98811 0 0 0 
1164 2 -12.0401 -2.12939 -3.59271 0 0 0 
704 1 -4.1364 -1.54205 -3.93602 0 0 0 
705 1 -3.25618 -1.31759 -4.34522 0 0 0 
393 1 2.5928 -2.19207 -3.83946 0 0 0 
741 1 -0.153236 0.22859 -4.12792 0 0 0 
742 1 -0.372827 0.814894 -3.41632 0 0 0 
400 1 0.828122 1.50124 -4.35709 0 0 0 
401 1 1.74693 1.76599 -3.9372 0 0 0 
280 1 2.98299 1.54761 -4.13004 0 0 0 
402 1 2.18634 2.6144 -3.97037 0 0 0 
405 1 3.59662 4.94819 -4.17751 0 0 0 
406 1 4.19229 5.11624 -3.50771 0 0 0 
407 1 4.88922 5.88561 -3.41675 0 0 0 
408 1 5.11278 6.27775 -4.28417 0 0 0 
1148 2 -14.5171 6.7847 -4.36194 0 0 0 
537 1 -4.3875 7.12122 -3.7761 0 0 0 
853 1 0.791997 9.69778 -4.41063 0 0 0 
936 1 7.2514 9.91744 -4.12364 0 0 0 
935 1 7.78432 9.0842 -4.07071 0 0 0 
943 1 9.24405 11.7091 -3.76749 0 0 0 
942 1 9.23789 12.6636 -4.04942 0 0 0 
941 1 8.72511 13.5045 -4.29255 0 0 0 
844 1 -2.70382 15.442 -4.01792 0 0 0 
1020 2 0.29963 14.5276 -3.43435 0 0 0 
1039 2 17.7265 17.2061 -3.36723 0 0 0 
125 1 -5.80067 -14.456 -3.12475 0 0 0 
681 1 -0.671213 -14.9643 -3.32807 0 0 0 
117 1 -11.4697 -14.3786 -2.45124 0 0 0 
118 1 -11.669 -13.9953 -3.31411 0 0 0 
124 1 -6.50279 -13.7895 -3.29418 0 0 0 
87 1 -11.8559 -9.4188 -2.32153 0 0 0 
649 1 3.47818 -9.91043 -2.80418 0 0 0 
86 1 -11.5008 -8.61844 -2.83836 0 0 0 
343 1 0.00435932 -8.24491 -3.21573 0 0 0 
342 1 0.0608637 -8.04405 -2.30553 0 0 0 
692 1 1.48834 -7.85121 -3.2299 0 0 0 
17 1 5.41538 -7.78101 -2.63253 0 0 0 
693 1 0.829962 -7.13536 -3.15516 0 0 0 
646 1 3.1999 -7.57968 -2.31513 0 0 0 
695 1 -0.697026 -6.06291 -3.30722 0 0 0 
1150 2 1.01895 -5.77711 -2.85524 0 0 0 
694 1 0.200178 -6.38973 -3.25613 0 0 0 
645 1 3.16379 -6.64834 -2.34637 0 0 0 
81 1 -8.75275 -5.33731 -3.19226 0 0 0 
80 1 -8.60145 -4.54923 -2.55416 0 0 0 
699 1 -3.62336 -5.40578 -2.41295 0 0 0 
700 1 -4.29443 -4.74228 -2.61345 0 0 0 
698 1 -2.74487 -5.05173 -2.40392 0 0 0 
697 1 -1.87691 -5.11772 -2.8894 0 0 0 
352 1 0.789143 -4.51836 -2.66473 0 0 0 
1128 2 3.82497 -4.95242 -2.23281 0 0 0 
701 1 -4.81166 -4.23987 -3.22284 0 0 0 
1247 2 3.04802 -3.43936 -2.34372 0 0 0 
390 1 4.26196 -4.13747 -2.85085 0 0 0 
702 1 -4.97704 -3.15857 -3.14867 0 0 0 
392 1 3.21634 -2.67423 -3.21569 0 0 0 
391 1 3.95378 -3.28675 -3.1587 0 0 0 
1121 2 -6.24721 0.390758 -3.05632 0 0 0 
743 1 -0.497745 1.0665 -2.48115 0 0 0 
1036 2 0.529634 0.948047 -2.81834 0 0 0 
1192 2 -0.540992 2.16916 -2.32034 0 0 0 
281 1 3.07024 1.21979 -3.19748 0 0 0 
1113 2 3.88204 6.01703 -3.05117 0 0 0 
538 1 -4.96961 7.06236 -3.0959 0 0 0 
947 1 9.05763 8.4929 -2.28713 0 0 0 
946 1 8.89859 9.31657 -2.70631 0 0 0 
945 1 8.98258 10.1894 -3.07411 0 0 0 
944 1 9.294 11.0604 -3.06732 0 0 0 
843 1 -2.31011 15.6104 -3.09525 0 0 0 
842 1 -2.29392 16.1251 -2.29551 0 0 0 
1054 2 15.4315 -18.2171 -1.78488 0 0 0 
1279 2 9.97034 -16.8762 -2.03757 0 0 0 
116 1 -12.3898 -14.4227 -2.10621 0 0 0 
115 1 -13.1126 -14.4173 -1.46076 0 0 0 
1093 2 -1.23323 -12.6292 -1.34088 0 0 0 
378 1 7.62404 -11.9002 -1.15758 0 0 0 
88 1 -12.3786 -9.33576 -1.52767 0 0 0 
648 1 3.45854 -9.17412 -2.194 0 0 0 
340 1 -1.58862 -7.91173 -1.25686 0 0 0 
341 1 -0.714937 -8.03673 -1.75968 0 0 0 
647 1 3.57502 -8.33426 -1.76182 0 0 0 
620 1 -3.3318 -7.642 -1.20275 0 0 0 
1067 2 -2.32239 -7.48569 -1.92337 0 0 0 
1094 2 2.72546 -7.07082 -1.11198 0 0 0 
18 1 5.2198 -7.71238 -1.70751 0 0 0 
618 1 -3.38888 -5.71316 -1.13682 0 0 0 
619 1 -3.54628 -6.66667 -1.14089 0 0 0 
354 1 -0.122411 -5.66177 -1.34274 0 0 0 
1122 2 0.495322 -6.66555 -1.32786 0 0 0 
644 1 3.33901 -5.88122 -1.72448 0 0 0 
617 1 -3.89287 -4.99423 -1.43451 0 0 0 
353 1 0.198162 -5.06276 -1.98603 0 0 0 
643 1 3.26879 -5.02612 -1.2801 0 0 0 
388 1 5.23078 -4.95978 -1.45399 0 0 0 
76 1 -11.2531 -3.54301 -1.50058 0 0 0 
77 1 -10.2874 -3.51288 -1.7866 0 0 0 
78 1 -9.34864 -3.40434 -1.92101 0 0 0 
79 1 -8.39301 -3.75876 -1.87833 0 0 0 
615 1 -4.74725 -3.46909 -1.78631 0 0 0 
616 1 -4.26642 -4.13947 -1.30343 0 0 0 
1072 2 2.14547 -4.1881 -2.19457 0 0 0 
642 1 2.52074 -4.41401 -1.14938 0 0 0 
389 1 4.79468 -4.42915 -2.07174 0 0 0 
614 1 -4.8125 -2.47147 -1.48432 0 0 0 
295 1 -1.3575 -2.56547 -1.55783 0 0 0 
613 1 -5.5141 -1.83477 -1.72868 0 0 0 
294 1 -1.49331 -1.68125 -1.11662 0 0 0 
612 1 -5.68533 -0.863068 -1.55006 0 0 0 
611 1 -6.23365 -0.133459 -1.88284 0 0 0 
745 1 -0.539408 -0.450327 -1.23204 0 0 0 
610 1 -6.55708 0.7566 -1.81549 0 0 0 
1187 2 -1.60899 0.171685 -1.58324 0 0 0 
744 1 -0.59016 0.276949 -1.94985 0 0 0 
283 1 3.04995 0.72434 -1.47396 0 0 0 
609 1 -7.2099 1.28116 -1.23162 0 0 0 
1142 2 0.161416 1.45748 -1.69155 0 0 0 
282 1 3.11162 1.44864 -2.20313 0 0 0 
1240 2 5.81711 6.41085 -1.23077 0 0 0 
950 1 11.1334 6.66425 -1.51084 0 0 0 
1136 2 14.0312 6.2728 -1.82507 0 0 0 
539 1 -5.01643 7.0379 -2.07208 0 0 0 
948 1 9.50229 7.67999 -1.89039 0 0 0 
949 1 10.2181 6.94898 -1.89316 0 0 0 
951 1 11.8603 7.23554 -1.84805 0 0 0 
952 1 12.2468 8.03015 -1.49509 0 0 0 
953 1 13.1322 8.49649 -1.34171 0 0 0 
546 1 -8.50748 9.53033 -1.2123 0 0 0 
545 1 -7.61279 9.16284 -1.24288 0 0 0 
1263 2 11.5726 13.5374 -1.50053 0 0 0 
841 1 -1.92461 16.5466 -1.42449 0 0 0 
1203 2 -0.824537 -14.8502 -0.58256 0 0 0 
114 1 -13.3395 -14.2054 -0.522902 0 0 0 
317 1 1.50037 -13.3721 -0.408052 0 0 0 
333 1 -0.875674 -12.5869 -0.359824 0 0 0 
332 1 -0.162367 -12.2315 -0.901091 0 0 0 
318 1 2.27174 -12.8973 -0.736414 0 0 0 
377 1 7.25618 -12.4486 -0.443686 0 0 0 
334 1 -1.67881 -12.1849 -0.0421535 0 0 0 
331 1 0.0881358 -11.4172 -0.380245 0 0 0 
319 1 2.83191 -12.0907 -0.749255 0 0 0 